/*--------------------------------*- C++ -*----------------------------------*\
  =========                 |
  \\      /  F ield         | OpenFOAM: The Open Source CFD Toolbox
   \\    /   O peration     | Website:  https://openfoam.org
    \\  /    A nd           | Version:  12
     \\/     M anipulation  |
\*---------------------------------------------------------------------------*/
FoamFile
{
    format      ascii;
    class       volVectorField;
    location    "0";
    object      U;
}
// * * * * * * * * * * * * * * * * * * * * * * * * * * * * * * * * * * * * * //

dimensions      [0 1 -1 0 0 0 0];

internalField   uniform (0 0 0);

boundaryField
{
    inlet
    {
        type            flowRateInletVelocity;
        volumetricFlowRate 
        {
            type            constant;
            value           0.032;
        }
        profile         
        {
            type            laminarBL;
        }
        value           nonuniform List<vector> 
100
(
(-0 -0 1.23077)
(-0 -0 1.23077)
(-0 -0 1.23077)
(-0 -0 1.23077)
(-0 -0 1.23077)
(-0 -0 1.23077)
(-0 -0 1.23077)
(-0 -0 1.23077)
(-0 -0 1.23077)
(-0 -0 1.23077)
(-0 -0 1.23077)
(-0 -0 3.25792)
(-0 -0 3.25792)
(-0 -0 3.25792)
(-0 -0 3.25792)
(-0 -0 3.25792)
(-0 -0 3.25792)
(-0 -0 3.25792)
(-0 -0 3.25792)
(-0 -0 1.23077)
(-0 -0 1.23077)
(-0 -0 3.25792)
(-0 -0 4.70588)
(-0 -0 4.70588)
(-0 -0 4.70588)
(-0 -0 4.70588)
(-0 -0 4.70588)
(-0 -0 4.70588)
(-0 -0 3.25792)
(-0 -0 1.23077)
(-0 -0 1.23077)
(-0 -0 3.25792)
(-0 -0 4.70588)
(-0 -0 5.57466)
(-0 -0 5.57466)
(-0 -0 5.57466)
(-0 -0 5.57466)
(-0 -0 4.70588)
(-0 -0 3.25792)
(-0 -0 1.23077)
(-0 -0 1.23077)
(-0 -0 3.25792)
(-0 -0 4.70588)
(-0 -0 5.57466)
(-0 -0 5.86425)
(-0 -0 5.86425)
(-0 -0 5.57466)
(-0 -0 4.70588)
(-0 -0 3.25792)
(-0 -0 1.23077)
(-0 -0 1.23077)
(-0 -0 3.25792)
(-0 -0 4.70588)
(-0 -0 5.57466)
(-0 -0 5.86425)
(-0 -0 5.86425)
(-0 -0 5.57466)
(-0 -0 4.70588)
(-0 -0 3.25792)
(-0 -0 1.23077)
(-0 -0 1.23077)
(-0 -0 3.25792)
(-0 -0 4.70588)
(-0 -0 5.57466)
(-0 -0 5.57466)
(-0 -0 5.57466)
(-0 -0 5.57466)
(-0 -0 4.70588)
(-0 -0 3.25792)
(-0 -0 1.23077)
(-0 -0 1.23077)
(-0 -0 3.25792)
(-0 -0 4.70588)
(-0 -0 4.70588)
(-0 -0 4.70588)
(-0 -0 4.70588)
(-0 -0 4.70588)
(-0 -0 4.70588)
(-0 -0 3.25792)
(-0 -0 1.23077)
(-0 -0 1.23077)
(-0 -0 3.25792)
(-0 -0 3.25792)
(-0 -0 3.25792)
(-0 -0 3.25792)
(-0 -0 3.25792)
(-0 -0 3.25792)
(-0 -0 3.25792)
(-0 -0 3.25792)
(-0 -0 1.23077)
(-0 -0 1.23077)
(-0 -0 1.23077)
(-0 -0 1.23077)
(-0 -0 1.23077)
(-0 -0 1.23077)
(-0 -0 1.23077)
(-0 -0 1.23077)
(-0 -0 1.23077)
(-0 -0 1.23077)
(-0 -0 1.23077)
)
;
    }
    outlet
    {
        type            inletOutlet;
        inletValue      uniform (0 0 0);
        value           uniform (0 0 0);
    }
    wall
    {
        type            noSlip;
    }
}


// ************************************************************************* //
