/*--------------------------------*- C++ -*----------------------------------*\
  =========                 |
  \\      /  F ield         | OpenFOAM: The Open Source CFD Toolbox
   \\    /   O peration     | Website:  https://openfoam.org
    \\  /    A nd           | Version:  12
     \\/     M anipulation  |
\*---------------------------------------------------------------------------*/
FoamFile
{
    format      ascii;
    class       surfaceScalarField;
    location    "150";
    object      phi;
}
// * * * * * * * * * * * * * * * * * * * * * * * * * * * * * * * * * * * * * //

dimensions      [0 3 -1 0 0 0 0];

internalField   nonuniform List<scalar> 
27900
(
2.68431e-05
2.68431e-05
6.93907e-05
3.18646e-05
1.005e-06
0.00011705
1.00501e-06
3.18646e-05
0.00011705
5.38663e-06
5.38663e-06
5.86174e-05
2.49815e-05
-3.31863e-06
0.000133279
2.21057e-05
2.21057e-05
0.00028359
7.43769e-06
1.32491e-06
0.000113674
-3.31862e-06
2.49815e-05
0.000133279
1.32491e-06
7.43769e-06
0.000113674
2.03779e-06
2.03779e-06
5.45418e-05
1.32335e-05
-2.97669e-06
0.000137802
1.92317e-05
1.84938e-06
0.000323498
6.53906e-06
-1.01527e-06
0.000135193
1.84938e-06
1.92317e-05
0.000323498
1.06321e-05
1.06321e-05
0.000264976
3.63265e-06
1.94115e-06
0.000110138
-2.97669e-06
1.32335e-05
0.000137802
-1.01527e-06
6.53906e-06
0.000135193
1.94115e-06
3.63265e-06
0.000110138
9.17225e-07
9.17226e-07
5.27074e-05
1.34883e-11
-2.35585e-06
0.000138666
1.02565e-05
-1.06136e-06
0.000332852
3.70471e-06
-1.5027e-06
0.000142139
1.2126e-05
1.2126e-05
0.000450035
1.10118e-05
1.59942e-06
0.000320504
3.64095e-06
5.01027e-07
0.000134683
-1.06136e-06
1.02565e-05
0.000332852
1.59942e-06
1.10118e-05
0.000320504
8.06268e-06
8.06268e-06
0.000252733
2.00366e-06
1.78306e-06
0.000107269
-2.35585e-06
1.20211e-11
0.000138666
-1.50269e-06
3.7047e-06
0.000142139
5.01027e-07
3.64095e-06
0.000134683
1.78306e-06
2.00366e-06
0.000107269
4.61022e-07
4.61046e-07
5.17853e-05
-1.32335e-05
-2.35585e-06
0.000138666
1.07359e-11
-9.0387e-07
0.000334596
1.55621e-11
-1.45616e-06
0.000143827
7.19087e-06
1.89716e-06
0.000472565
6.37966e-06
-4.93855e-07
0.000336475
2.22319e-06
2.01441e-08
0.000143536
1.89716e-06
7.19087e-06
0.000472565
6.56688e-06
6.56688e-06
0.0004401
8.96167e-06
2.61901e-06
0.000317487
2.29011e-06
7.69211e-07
0.000133628
-9.0387e-07
9.42395e-12
0.000334596
-4.93854e-07
6.37966e-06
0.000336475
2.61901e-06
8.96167e-06
0.000317487
5.9839e-06
5.98391e-06
0.000244331
1.06845e-06
1.43087e-06
0.000105231
-2.35585e-06
-1.32335e-05
0.000138666
-1.45615e-06
1.17648e-11
0.000143827
2.01433e-08
2.22319e-06
0.000143536
7.6921e-07
2.29012e-06
0.000133628
1.43085e-06
1.06849e-06
0.000105231
3.36545e-07
3.36489e-07
5.11123e-05
-2.49815e-05
-2.97669e-06
0.000137802
-1.02565e-05
-9.03869e-07
0.000334596
-3.70468e-06
-1.45615e-06
0.000143827
8.6728e-12
7.90378e-07
0.000476085
1.52876e-11
-5.37876e-07
0.000340058
3.46939e-12
2.34408e-08
0.000146027
5.16614e-06
5.16614e-06
0.000550928
4.62231e-06
1.18073e-06
0.000472835
5.41731e-06
6.53315e-07
0.000339386
1.48871e-06
2.1487e-07
0.000144123
7.9038e-07
7.46897e-12
0.000476085
1.18073e-06
4.62231e-06
0.000472835
6.13259e-06
6.13258e-06
0.000433073
7.08535e-06
2.75448e-06
0.0003144
1.37082e-06
7.54068e-07
0.000132571
-9.03868e-07
-1.02565e-05
0.000334596
-5.37875e-07
1.24199e-11
0.000340058
6.53317e-07
5.41731e-06
0.000339386
2.75448e-06
7.08535e-06
0.0003144
4.32872e-06
4.32875e-06
0.000238536
6.84286e-07
1.17453e-06
0.000103708
-2.97669e-06
-2.49815e-05
0.000137802
-1.45615e-06
-3.70468e-06
0.000143827
2.34393e-08
7.36055e-12
0.000146027
2.14869e-07
1.48871e-06
0.000144123
7.54066e-07
1.37087e-06
0.000132571
1.17456e-06
6.84189e-07
0.000103708
2.83958e-07
2.84034e-07
5.05443e-05
-3.18646e-05
-3.31862e-06
0.000133279
-1.92317e-05
-1.06136e-06
0.000332852
-6.53904e-06
-1.50269e-06
0.000142139
-7.19085e-06
7.9038e-07
0.000476085
-6.37963e-06
-5.37875e-07
0.000340058
-2.22319e-06
2.34405e-08
0.000146027
8.29087e-12
2.18907e-06
0.000561234
1.20664e-11
7.75971e-07
0.000479393
8.47491e-12
4.68713e-07
0.00034503
-9.93225e-12
1.32734e-07
0.000147383
2.18907e-06
7.00643e-12
0.000561234
2.58093e-06
2.58092e-06
0.000548128
4.45118e-06
1.92133e-06
0.000473248
4.48253e-06
9.201e-07
0.000341284
9.50106e-07
1.93286e-07
0.00014435
7.90381e-07
-7.19086e-06
0.000476085
7.75973e-07
9.88292e-12
0.000479393
1.92133e-06
4.45118e-06
0.000473248
5.42165e-06
5.42165e-06
0.000427739
5.40842e-06
2.52099e-06
0.000311553
9.11251e-07
7.55889e-07
0.000131588
-1.06135e-06
-1.92317e-05
0.000332852
-5.37874e-07
-6.37963e-06
0.000340058
4.68715e-07
1.01796e-11
0.00034503
9.20099e-07
4.48252e-06
0.000341284
2.52097e-06
5.40844e-06
0.000311553
3.21753e-06
3.21748e-06
0.00023445
5.04666e-07
9.74371e-07
0.000102513
-3.31862e-06
-3.18646e-05
0.000133279
-1.50269e-06
-6.53904e-06
0.000142139
2.34398e-08
-2.22318e-06
0.000146027
1.32734e-07
-1.15578e-11
0.000147383
1.93295e-07
9.50128e-07
0.00014435
7.5589e-07
9.11155e-07
0.000131588
9.7432e-07
5.04806e-07
0.000102513
2.37688e-07
2.37669e-07
5.00689e-05
-2.68431e-05
1.00501e-06
0.00011705
-2.21057e-05
1.84939e-06
0.000323498
-7.43767e-06
-1.01527e-06
0.000135193
-1.2126e-05
1.89716e-06
0.000472565
-1.10117e-05
-4.93852e-07
0.000336475
-3.64095e-06
2.01443e-08
0.000143536
-5.16613e-06
2.18907e-06
0.000561234
-4.62229e-06
7.75972e-07
0.000479393
-5.41729e-06
4.68714e-07
0.00034503
-1.48873e-06
1.32734e-07
0.000147383
8.58185e-12
7.18663e-12
0.000590803
1.08959e-11
1.33625e-06
0.000563254
7.65636e-12
1.38111e-06
0.000482932
-1.23321e-12
5.95227e-07
0.00034905
-3.59453e-11
3.98159e-08
0.000148293
2.18907e-06
-5.16613e-06
0.000561234
1.33625e-06
8.71859e-12
0.000563254
2.5722e-06
2.5722e-06
0.000546826
4.04491e-06
2.09471e-06
0.00047345
3.5715e-06
9.12808e-07
0.000342401
6.57693e-07
2.43529e-07
0.00014436
1.89716e-06
-1.2126e-05
0.000472565
7.75973e-07
-4.62229e-06
0.000479393
1.38111e-06
9.05153e-12
0.000482932
2.09471e-06
4.0449e-06
0.00047345
4.60472e-06
4.60474e-06
0.000423571
4.15773e-06
2.29192e-06
0.000309077
6.54186e-07
7.45017e-07
0.000130694
1.84939e-06
-2.21057e-05
0.000323498
-4.93852e-07
-1.10117e-05
0.000336475
4.68716e-07
-5.41729e-06
0.00034503
5.95224e-07
-5.28713e-12
0.00034905
9.12798e-07
3.57151e-06
0.000342401
2.29196e-06
4.15769e-06
0.000309077
2.46061e-06
2.4607e-06
0.000231477
3.93735e-07
8.02835e-07
0.000101554
1.00501e-06
-2.68431e-05
0.00011705
-1.01527e-06
-7.43767e-06
0.000135193
2.01455e-08
-3.64094e-06
0.000143536
1.32731e-07
-1.48873e-06
0.000147383
3.98334e-08
-4.88242e-11
0.000148293
2.43499e-07
6.57662e-07
0.00014436
7.45005e-07
6.54329e-07
0.000130694
8.02842e-07
3.937e-07
0.000101554
1.98936e-07
1.98872e-07
4.96711e-05
2.68431e-05
6.93907e-05
-1.005e-06
2.21058e-05
0.00028359
-5.38662e-06
1.32491e-06
0.000113674
-1.84937e-06
1.2126e-05
0.000450035
-1.06321e-05
1.59942e-06
0.000320504
-3.63265e-06
5.01027e-07
0.000134683
-1.89715e-06
5.16614e-06
0.000550928
-6.56686e-06
1.18073e-06
0.000472835
-8.96165e-06
6.53316e-07
0.000339386
-2.29013e-06
2.14869e-07
0.000144123
-2.18906e-06
7.11772e-12
0.000590803
-2.58091e-06
1.33625e-06
0.000563254
-4.45116e-06
1.38111e-06
0.000482932
-4.48253e-06
5.95226e-07
0.00034905
-9.50173e-07
3.9812e-08
0.000148293
8.51321e-12
-2.18906e-06
0.000590803
1.04018e-11
8.22833e-12
0.000593476
6.77881e-12
1.55562e-06
0.000565652
3.05781e-14
1.44101e-06
0.000486131
-2.01315e-11
5.01994e-07
0.000352159
-9.11395e-12
5.1762e-08
0.000148899
5.16614e-06
-1.89715e-06
0.000550928
1.33625e-06
-2.58091e-06
0.000563254
1.55562e-06
8.50125e-12
0.000565652
2.39646e-06
2.39646e-06
0.000546222
3.5171e-06
2.00987e-06
0.000473441
2.84443e-06
9.4649e-07
0.000343011
4.79681e-07
3.05843e-07
0.000144229
1.2126e-05
-1.84937e-06
0.000450035
1.18073e-06
-6.56686e-06
0.000472835
1.38111e-06
-4.45116e-06
0.000482932
1.44101e-06
-4.62466e-12
0.000486131
2.00986e-06
3.51711e-06
0.000473441
3.92639e-06
3.92635e-06
0.000420302
3.2309e-06
2.07432e-06
0.000306977
4.85235e-07
7.04283e-07
0.000129898
2.21058e-05
-1.005e-06
0.00028359
1.59942e-06
-1.06321e-05
0.000320504
6.5332e-07
-8.96165e-06
0.000339386
5.95222e-07
-4.48253e-06
0.00034905
5.01993e-07
-2.3923e-11
0.000352159
9.46511e-07
2.84443e-06
0.000343011
2.07426e-06
3.23098e-06
0.000306977
1.92192e-06
1.9219e-06
0.000229239
3.20881e-07
6.61017e-07
0.000100771
2.68431e-05
6.93907e-05
1.32491e-06
-5.38662e-06
0.000113674
5.0103e-07
-3.63264e-06
0.000134683
2.14866e-07
-2.29013e-06
0.000144123
3.98333e-08
-9.50226e-07
0.000148293
5.17135e-08
5.55547e-11
0.000148899
3.05869e-07
4.79755e-07
0.000144229
7.04288e-07
4.85192e-07
0.000129898
6.61061e-07
3.20766e-07
0.000100771
1.69257e-07
1.69286e-07
4.93326e-05
3.18646e-05
0.00011705
5.38664e-06
5.86174e-05
3.31863e-06
1.92317e-05
0.000323498
-1.3249e-06
1.06321e-05
0.000264976
-2.03779e-06
1.94115e-06
0.000110138
1.06137e-06
7.19087e-06
0.000472565
-1.5994e-06
6.56688e-06
0.0004401
-8.06267e-06
2.61901e-06
0.000317487
-2.00367e-06
7.69207e-07
0.000133628
-7.90365e-07
6.86806e-12
0.000561234
-1.18071e-06
2.58093e-06
0.000548128
-6.13257e-06
1.92133e-06
0.000473248
-7.08535e-06
9.20097e-07
0.000341284
-1.37087e-06
1.93278e-07
0.00014435
-2.18906e-06
-2.18906e-06
0.000590803
-1.33623e-06
7.91068e-12
0.000593476
-2.57219e-06
1.55562e-06
0.000565652
-4.04491e-06
1.44101e-06
0.000486131
-3.57154e-06
5.01989e-07
0.000352159
-6.57714e-07
5.17643e-08
0.000148899
8.15627e-12
-7.90365e-07
0.000561234
1.00801e-11
-1.33623e-06
0.000593476
6.97486e-12
8.87767e-12
0.000596587
-1.4721e-12
1.51897e-06
0.00056797
-1.34402e-11
1.31401e-06
0.000488836
-1.86636e-11
4.97832e-07
0.000354558
-1.46076e-11
1.01113e-07
0.000149278
7.19087e-06
1.06137e-06
0.000472565
2.58093e-06
-1.18072e-06
0.000548128
1.55562e-06
-2.57219e-06
0.000565652
1.51897e-06
-5.69935e-12
0.00056797
2.1439e-06
2.14391e-06
0.000545954
3.04046e-06
1.92802e-06
0.000473345
2.27073e-06
9.85479e-07
0.000343292
3.55873e-07
3.42655e-07
0.000144016
1.92317e-05
3.31863e-06
0.000323498
6.56688e-06
-1.5994e-06
0.0004401
1.92133e-06
-6.13257e-06
0.000473248
1.44101e-06
-4.04491e-06
0.000486131
1.314e-06
-1.45037e-11
0.000488836
1.92805e-06
3.04045e-06
0.000473345
3.36079e-06
3.36086e-06
0.000417729
2.53425e-06
1.85784e-06
0.000305212
3.71895e-07
6.4766e-07
0.000129199
3.18646e-05
0.00011705
1.06321e-05
-1.3249e-06
0.000264976
2.61902e-06
-8.06267e-06
0.000317487
9.20094e-07
-7.08535e-06
0.000341284
5.0199e-07
-3.57157e-06
0.000352159
4.97839e-07
1.89413e-11
0.000354558
9.85439e-07
2.27077e-06
0.000343292
1.85785e-06
2.53423e-06
0.000305212
1.53176e-06
1.53169e-06
0.000227497
2.72847e-07
5.48343e-07
0.00010012
5.38664e-06
5.86174e-05
1.94115e-06
-2.03779e-06
0.000110138
7.69208e-07
-2.00367e-06
0.000133628
1.93282e-07
-1.37095e-06
0.00014435
5.17195e-08
-6.57549e-07
0.000148899
1.0116e-07
-4.80993e-11
0.000149278
3.4266e-07
3.55825e-07
0.000144016
6.4767e-07
3.7178e-07
0.000129199
5.4833e-07
2.72898e-07
0.00010012
1.463e-07
1.46349e-07
4.90399e-05
2.49815e-05
0.000133279
7.43769e-06
0.000113674
2.03779e-06
5.45418e-05
2.9767e-06
1.02565e-05
0.000332852
1.01528e-06
1.10118e-05
0.000320504
-1.94115e-06
8.06268e-06
0.000252733
-9.17234e-07
1.78305e-06
0.000107269
9.03885e-07
7.21227e-12
0.000476085
4.93871e-07
4.62231e-06
0.000472835
-2.619e-06
6.13259e-06
0.000433073
-5.98391e-06
2.75448e-06
0.0003144
-1.06848e-06
7.5406e-07
0.000132571
-7.90366e-07
-5.16613e-06
0.000561234
-7.75954e-07
7.89365e-12
0.000563254
-1.92132e-06
2.57221e-06
0.000546826
-5.42165e-06
2.09471e-06
0.00047345
-5.40845e-06
9.12799e-07
0.000342401
-9.11278e-07
2.4353e-07
0.00014436
-5.16613e-06
-7.90366e-07
0.000561234
-1.33623e-06
-1.33623e-06
0.000593476
-1.55561e-06
8.97028e-12
0.000596587
-2.39646e-06
1.51897e-06
0.00056797
-3.51712e-06
1.31401e-06
0.000488836
-2.84447e-06
4.9784e-07
0.000354558
-4.79706e-07
1.01109e-07
0.000149278
8.37242e-12
9.03885e-07
0.000476085
1.00433e-11
-7.75956e-07
0.000563254
7.0609e-12
-1.5556e-06
0.000596587
-4.59758e-13
-4.86804e-12
0.000599625
-1.34503e-11
1.38245e-06
0.000570046
-1.29478e-11
1.24155e-06
0.000491133
-1.5434e-11
5.32725e-07
0.000356397
1.99022e-12
1.41145e-07
0.000149492
1.02565e-05
2.9767e-06
0.000332852
4.62231e-06
4.9387e-07
0.000472835
2.57221e-06
-1.92131e-06
0.000546826
1.51897e-06
-2.39647e-06
0.00056797
1.38244e-06
-1.58935e-11
0.000570046
1.93613e-06
1.93611e-06
0.000545938
2.61978e-06
1.84246e-06
0.000473229
1.81588e-06
9.97988e-07
0.000343355
2.68796e-07
3.58139e-07
0.000143761
2.49815e-05
0.000133279
1.10118e-05
1.01528e-06
0.000320504
6.13259e-06
-2.619e-06
0.000433073
2.09471e-06
-5.42165e-06
0.00047345
1.314e-06
-3.51715e-06
0.000488836
1.24157e-06
1.6998e-11
0.000491133
1.84239e-06
2.61982e-06
0.000473229
2.87794e-06
2.87792e-06
0.000415689
2.01077e-06
1.65339e-06
0.000303727
2.9674e-07
5.87532e-07
0.000128588
7.43769e-06
0.000113674
8.06268e-06
-1.94115e-06
0.000252733
2.75448e-06
-5.98391e-06
0.0003144
9.12786e-07
-5.40849e-06
0.000342401
4.97853e-07
-2.84437e-06
0.000354557
5.32697e-07
-3.31255e-11
0.000356397
9.97999e-07
1.81586e-06
0.000343355
1.65344e-06
2.01071e-06
0.000303727
1.24596e-06
1.24599e-06
0.000226102
2.3934e-07
4.59641e-07
9.95668e-05
2.03779e-06
5.45418e-05
1.78306e-06
-9.17231e-07
0.000107269
7.54042e-07
-1.06855e-06
0.000132571
2.43527e-07
-9.11072e-07
0.00014436
1.01148e-07
-4.7985e-07
0.000149278
1.41149e-07
-4.59922e-11
0.000149492
3.58114e-07
2.68745e-07
0.000143761
5.87525e-07
2.968e-07
0.000128588
4.59606e-07
2.39428e-07
9.95668e-05
1.2793e-07
1.27916e-07
4.87841e-05
1.32336e-05
0.000137802
6.53906e-06
0.000135193
3.63265e-06
0.000110138
9.17217e-07
5.27074e-05
2.35586e-06
8.88267e-12
0.000334596
1.5027e-06
6.37966e-06
0.000336475
-5.01023e-07
8.96167e-06
0.000317487
-1.78306e-06
5.9839e-06
0.000244331
-4.61029e-07
1.43087e-06
0.000105231
9.03884e-07
-7.19086e-06
0.000476085
5.37892e-07
8.81957e-12
0.000479393
-6.53308e-07
4.45118e-06
0.000473248
-2.75448e-06
5.42165e-06
0.000427739
-4.32875e-06
2.52098e-06
0.000311553
-6.84317e-07
7.55881e-07
0.000131588
-1.89715e-06
-1.89715e-06
0.000550928
-7.75954e-07
-2.58091e-06
0.000563254
-1.3811e-06
9.12119e-12
0.000565652
-2.09471e-06
2.39646e-06
0.000546223
-4.60474e-06
2.00986e-06
0.000473441
-4.15776e-06
9.46504e-07
0.000343011
-6.54198e-07
3.05836e-07
0.000144229
-7.19086e-06
9.03883e-07
0.000476085
-2.58091e-06
-7.75957e-07
0.000563254
-1.55561e-06
-1.5556e-06
0.000596587
-1.51897e-06
-3.55326e-12
0.000599625
-2.14392e-06
1.38245e-06
0.000570046
-3.04049e-06
1.24156e-06
0.000491133
-2.27076e-06
5.32713e-07
0.000356397
-3.5587e-07
1.41146e-07
0.000149492
1.00912e-11
2.35586e-06
0.000334596
1.11991e-11
5.37892e-07
0.000479393
7.31364e-12
-1.38109e-06
0.000565652
9.58527e-13
-1.51898e-06
0.000599625
-2.02475e-11
-2.26629e-11
0.00060239
-2.10554e-12
1.27697e-06
0.000571947
-1.88716e-11
1.19706e-06
0.000493089
-1.01775e-11
5.63295e-07
0.00035779
1.40706e-11
1.69487e-07
0.000149592
1.32336e-05
0.000137802
6.37966e-06
1.50271e-06
0.000336475
4.45118e-06
-6.53309e-07
0.000473248
2.39646e-06
-2.09471e-06
0.000546222
1.38243e-06
-2.14395e-06
0.000570046
1.27698e-06
2.96802e-11
0.000571947
1.75718e-06
1.75722e-06
0.000546109
2.24859e-06
1.74013e-06
0.000473117
1.45836e-06
9.88335e-07
0.000343277
2.08406e-07
3.60849e-07
0.000143488
6.53906e-06
0.000135193
8.96167e-06
-5.01024e-07
0.000317487
5.42165e-06
-2.75448e-06
0.000427739
2.00984e-06
-4.60478e-06
0.000473441
1.24159e-06
-3.0404e-06
0.000491133
1.197e-06
-3.55788e-11
0.000493089
1.74014e-06
2.24857e-06
0.000473117
2.46849e-06
2.46844e-06
0.000414059
1.61764e-06
1.46875e-06
0.000302474
2.4611e-07
5.29259e-07
0.000128052
3.63265e-06
0.000110138
5.9839e-06
-1.78306e-06
0.000244331
2.52095e-06
-4.32878e-06
0.000311553
9.46547e-07
-4.15765e-06
0.000343011
5.32677e-07
-2.27084e-06
0.000356397
5.63308e-07
-3.0092e-11
0.00035779
9.88361e-07
1.45834e-06
0.000343277
1.46874e-06
1.61767e-06
0.000302474
1.03281e-06
1.03286e-06
0.000224956
2.14029e-07
3.89446e-07
9.90913e-05
9.17221e-07
5.27074e-05
1.43083e-06
-4.61068e-07
0.000105231
7.55926e-07
-6.84151e-07
0.000131588
3.05838e-07
-6.54389e-07
0.000144229
1.4115e-07
-3.55914e-07
0.000149492
1.69443e-07
5.6608e-11
0.000149592
3.60846e-07
2.08461e-07
0.000143488
5.29251e-07
2.46199e-07
0.000128052
3.8945e-07
2.14005e-07
9.90913e-05
1.1289e-07
1.12851e-07
4.85583e-05
1.12251e-11
0.000138666
3.7047e-06
0.000142139
3.64095e-06
0.000134683
2.00365e-06
0.000107269
4.61046e-07
5.17853e-05
2.35586e-06
-1.02565e-05
0.000334596
1.45616e-06
1.10508e-11
0.000340058
-2.01393e-08
5.41731e-06
0.000339386
-7.6921e-07
7.08534e-06
0.0003144
-1.43086e-06
4.32874e-06
0.000238536
-3.3657e-07
1.1745e-06
0.000103708
1.06137e-06
-1.2126e-05
0.000472565
5.37892e-07
-4.6223e-06
0.000479393
-4.68708e-07
8.94032e-12
0.000482932
-9.20098e-07
4.0449e-06
0.00047345
-2.52099e-06
4.60473e-06
0.000423571
-3.21756e-06
2.29192e-06
0.000309077
-5.04663e-07
7.45012e-07
0.000130694
-1.2126e-05
1.06137e-06
0.000472565
-1.18072e-06
-1.18072e-06
0.000548128
-1.3811e-06
-2.57219e-06
0.000565652
-1.44101e-06
-2.74426e-12
0.00056797
-2.00988e-06
2.1439e-06
0.000545954
-3.92641e-06
1.92804e-06
0.000473345
-3.23093e-06
9.85452e-07
0.000343292
-4.85234e-07
3.42659e-07
0.000144016
-1.02565e-05
2.35586e-06
0.000334596
-4.62229e-06
5.37891e-07
0.000479393
-2.57219e-06
-1.3811e-06
0.000565652
-1.51897e-06
-1.51897e-06
0.000599625
-1.38248e-06
-2.67513e-11
0.00060239
-1.93614e-06
1.27698e-06
0.000571947
-2.61982e-06
1.19705e-06
0.000493089
-1.8159e-06
5.63297e-07
0.00035779
-2.68772e-07
1.6949e-07
0.000149592
1.25642e-11
0.000138666
1.41155e-11
1.45616e-06
0.000340058
7.49818e-12
-4.68709e-07
0.000482932
1.9143e-12
-1.44101e-06
0.00056797
-2.45924e-11
-1.38251e-06
0.00060239
1.22438e-11
4.50497e-11
0.000604944
-2.93969e-11
1.19037e-06
0.00057371
-5.44849e-12
1.15304e-06
0.000494747
-2.07362e-12
5.85799e-07
0.000358832
6.26429e-12
1.90172e-07
0.00014961
3.70471e-06
0.000142139
5.41731e-06
-2.01428e-08
0.000339386
4.0449e-06
-9.20094e-07
0.00047345
2.14388e-06
-2.00992e-06
0.000545954
1.277e-06
-1.93605e-06
0.000571947
1.19033e-06
-4.89641e-11
0.00057371
1.59258e-06
1.59257e-06
0.000546404
1.9265e-06
1.62928e-06
0.000473018
1.17949e-06
9.64593e-07
0.000343112
1.6638e-07
3.55261e-07
0.000143213
3.64095e-06
0.000134683
7.08534e-06
-7.69209e-07
0.0003144
4.6047e-06
-2.52101e-06
0.000423571
1.92809e-06
-3.92631e-06
0.000473345
1.19698e-06
-2.61989e-06
0.000493089
1.15305e-06
-1.89701e-11
0.000494747
1.62932e-06
1.92648e-06
0.000473018
2.12461e-06
2.12464e-06
0.000412747
1.32069e-06
1.30503e-06
0.00030141
2.10812e-07
4.75005e-07
0.00012758
2.00365e-06
0.000107269
4.3287e-06
-1.43088e-06
0.000238536
2.292e-06
-3.21747e-06
0.000309077
9.85393e-07
-3.23103e-06
0.000343292
5.63308e-07
-1.81592e-06
0.00035779
5.85814e-07
2.64777e-11
0.000358832
9.64577e-07
1.17952e-06
0.000343112
1.30499e-06
1.32074e-06
0.00030141
8.70372e-07
8.70362e-07
0.000223994
1.93652e-07
3.33465e-07
9.86771e-05
4.61003e-07
5.17853e-05
1.17458e-06
-3.36481e-07
0.000103708
7.44974e-07
-5.04825e-07
0.000130694
3.42652e-07
-4.8527e-07
0.000144016
1.69454e-07
-2.68636e-07
0.000149592
1.90173e-07
4.75393e-11
0.00014961
3.55279e-07
1.66422e-07
0.000143213
4.75009e-07
2.1078e-07
0.00012758
3.33492e-07
1.93581e-07
9.86771e-05
1.00401e-07
1.00395e-07
4.83575e-05
-1.32335e-05
0.000138666
1.01834e-11
0.000143827
2.22319e-06
0.000143536
2.29011e-06
0.000133628
1.06849e-06
0.000105231
3.3646e-07
5.11123e-05
2.97669e-06
-1.92317e-05
0.000332852
1.45616e-06
-6.37964e-06
0.000340058
-2.34344e-08
1.04523e-11
0.00034503
-2.14868e-07
4.48252e-06
0.000341284
-7.54071e-07
5.40844e-06
0.000311553
-1.17458e-06
3.21747e-06
0.00023445
-2.83945e-07
9.74378e-07
0.000102513
-1.84937e-06
-1.84937e-06
0.000450035
4.9387e-07
-6.56686e-06
0.000472835
-4.68709e-07
-4.45116e-06
0.000482932
-5.95225e-07
-1.16122e-12
0.000486131
-9.12812e-07
3.51711e-06
0.000473441
-2.29198e-06
3.92636e-06
0.000420302
-2.46063e-06
2.0743e-06
0.000306977
-3.93735e-07
7.0429e-07
0.000129898
-1.92317e-05
2.97669e-06
0.000332852
-6.56686e-06
4.93868e-07
0.000472835
-1.92132e-06
-1.92132e-06
0.000546826
-1.44101e-06
-2.39646e-06
0.00056797
-1.31402e-06
-2.6e-11
0.000570046
-1.92806e-06
1.93614e-06
0.000545938
-3.36081e-06
1.84242e-06
0.000473229
-2.53427e-06
9.97995e-07
0.000343355
-3.71879e-07
3.58144e-07
0.000143761
-1.32335e-05
0.000138666
-6.37963e-06
1.45616e-06
0.000340058
-4.45117e-06
-4.6871e-07
0.000482932
-2.39646e-06
-1.44101e-06
0.00056797
-1.38247e-06
-1.3825e-06
0.00060239
-1.27697e-06
5.24027e-11
0.000604944
-1.75723e-06
1.19035e-06
0.00057371
-2.2486e-06
1.15304e-06
0.000494747
-1.45836e-06
5.85807e-07
0.000358832
-2.08392e-07
1.90171e-07
0.00014961
1.42282e-11
0.000143827
8.56706e-12
-2.34393e-08
0.00034503
2.01438e-12
-5.95222e-07
0.000486131
-2.44279e-11
-1.31406e-06
0.000570046
1.98786e-11
-1.27688e-06
0.000604944
-4.11453e-11
-6.22777e-11
0.000607325
-1.61171e-12
1.10915e-06
0.000575347
1.38995e-13
1.1085e-06
0.000496151
9.63918e-13
6.02231e-07
0.0003596
-4.30199e-12
2.0464e-07
0.000149572
2.22319e-06
0.000143536
4.48252e-06
-2.14869e-07
0.000341284
3.51708e-06
-9.12824e-07
0.000473441
1.93617e-06
-1.92798e-06
0.000545938
1.19031e-06
-1.7573e-06
0.00057371
1.10917e-06
-1.47918e-11
0.000575347
1.44136e-06
1.44134e-06
0.00054678
1.65121e-06
1.51781e-06
0.000472938
9.6235e-07
9.31008e-07
0.000342894
1.36739e-07
3.44083e-07
0.000142943
2.29011e-06
0.000133628
5.40841e-06
-7.54071e-07
0.000311553
3.92643e-06
-2.29194e-06
0.000420302
1.84234e-06
-3.36089e-06
0.000473229
1.15305e-06
-2.24862e-06
0.000494747
1.10853e-06
2.63234e-11
0.000496151
1.51778e-06
1.65124e-06
0.000472938
1.83665e-06
1.83669e-06
0.000411684
1.09414e-06
1.16099e-06
0.0003005
1.85267e-07
4.25733e-07
0.000127163
1.06843e-06
0.000105231
3.21755e-06
-1.17454e-06
0.00023445
2.07421e-06
-2.46071e-06
0.000306977
9.97996e-07
-2.53429e-06
0.000343355
5.8583e-07
-1.45829e-06
0.000358832
6.02215e-07
2.29734e-11
0.0003596
9.30986e-07
9.62371e-07
0.000342894
1.16099e-06
1.09412e-06
0.0003005
7.43965e-07
7.43922e-07
0.000223173
1.76547e-07
2.88406e-07
9.83125e-05
3.36558e-07
5.11123e-05
9.74307e-07
-2.84035e-07
0.000102513
7.04272e-07
-3.93752e-07
0.000129898
3.58142e-07
-3.71706e-07
0.000143761
1.90174e-07
-2.0837e-07
0.00014961
2.04672e-07
-3.16186e-11
0.000149572
3.44089e-07
1.367e-07
0.000142943
4.25741e-07
1.85192e-07
0.000127163
2.88415e-07
1.76534e-07
9.83125e-05
8.99112e-08
8.99342e-08
4.81777e-05
-2.49815e-05
0.000137802
-3.70469e-06
0.000143827
7.3035e-12
0.000146027
1.48871e-06
0.000144123
1.37086e-06
0.000132571
6.84162e-07
0.000103708
2.84056e-07
5.05443e-05
3.31863e-06
-2.21057e-05
0.000323498
1.5027e-06
-1.10117e-05
0.000336475
-2.34346e-08
-5.41729e-06
0.00034503
-1.32735e-07
-3.41961e-12
0.00034905
-1.93301e-07
3.57151e-06
0.000342401
-7.55901e-07
4.15768e-06
0.000309077
-9.74321e-07
2.46069e-06
0.000231477
-2.37688e-07
8.02843e-07
0.000101554
-2.21057e-05
3.31863e-06
0.000323498
-1.59941e-06
-1.59941e-06
0.0004401
-6.53313e-07
-6.13257e-06
0.000473248
-5.95224e-07
-4.0449e-06
0.000486131
-5.02001e-07
-2.40274e-11
0.000488836
-9.46534e-07
3.04046e-06
0.000473345
-2.07427e-06
3.36082e-06
0.000417729
-1.92194e-06
1.85785e-06
0.000305212
-3.20877e-07
6.47664e-07
0.000129199
-2.49815e-05
0.000137802
-1.10117e-05
1.5027e-06
0.000336475
-6.13258e-06
-6.53312e-07
0.000473248
-2.09471e-06
-2.09471e-06
0.000546222
-1.31402e-06
-2.14395e-06
0.000570046
-1.24159e-06
4.75606e-11
0.000571947
-1.84242e-06
1.75718e-06
0.000546109
-2.87796e-06
1.74013e-06
0.000473117
-2.01077e-06
9.88353e-07
0.000343277
-2.96726e-07
3.60847e-07
0.000143488
-3.70468e-06
0.000143827
-5.4173e-06
-2.3439e-08
0.00034503
-4.0449e-06
-5.95223e-07
0.000486131
-2.14392e-06
-1.31405e-06
0.000570046
-1.27698e-06
-1.27688e-06
0.000604944
-1.1904e-06
-6.62899e-11
0.000607325
-1.59259e-06
1.10915e-06
0.000575347
-1.9265e-06
1.10851e-06
0.000496151
-1.17949e-06
6.02228e-07
0.0003596
-1.66387e-07
2.04639e-07
0.000149572
3.04999e-12
0.000146027
-1.65118e-12
-1.32739e-07
0.00034905
-1.83596e-11
-5.02e-07
0.000488836
1.68059e-11
-1.24151e-06
0.000571947
-4.5234e-11
-1.19048e-06
0.000607325
-2.19489e-12
-1.52893e-11
0.000609543
9.85408e-12
1.03306e-06
0.000576864
-5.1036e-12
1.06529e-06
0.000497339
-1.83314e-12
6.12233e-07
0.000360155
-3.75553e-12
2.13682e-07
0.000149495
1.48871e-06
0.000144123
3.5715e-06
-1.93276e-07
0.000342401
3.0405e-06
-9.46523e-07
0.000473345
1.75714e-06
-1.84249e-06
0.000546109
1.10917e-06
-1.5926e-06
0.000575347
1.03307e-06
3.74597e-11
0.000576864
1.30407e-06
1.30409e-06
0.000547207
1.41788e-06
1.40915e-06
0.000472878
7.92947e-07
8.90592e-07
0.000342649
1.15528e-07
3.2944e-07
0.000142683
1.37081e-06
0.000132571
4.15775e-06
-7.55913e-07
0.000309077
3.36073e-06
-2.07431e-06
0.000417729
1.74014e-06
-2.87797e-06
0.000473117
1.10855e-06
-1.92643e-06
0.000496151
1.06526e-06
1.18814e-11
0.000497339
1.40911e-06
1.4179e-06
0.000472878
1.59537e-06
1.59536e-06
0.000410815
9.19294e-07
1.03493e-06
0.000299716
1.66097e-07
3.81679e-07
0.000126791
6.84304e-07
0.000103708
2.46059e-06
-9.74367e-07
0.000231477
1.85784e-06
-1.92194e-06
0.000305212
9.88399e-07
-2.01067e-06
0.000343277
6.02215e-07
-1.17947e-06
0.0003596
6.1222e-07
-1.75286e-11
0.000360155
8.90599e-07
7.92928e-07
0.000342649
1.03495e-06
9.19254e-07
0.000299716
6.43695e-07
6.43683e-07
0.000222462
1.61802e-07
2.51726e-07
9.79889e-05
2.83957e-07
5.05443e-05
8.02824e-07
-2.37691e-07
0.000101554
6.477e-07
-3.20735e-07
0.000129199
3.60854e-07
-2.9672e-07
0.000143488
2.04666e-07
-1.66483e-07
0.000149572
2.13688e-07
-4.73464e-11
0.000149495
3.2943e-07
1.15483e-07
0.000142683
3.8168e-07
1.66088e-07
0.000126791
2.51713e-07
1.61843e-07
9.79889e-05
8.10025e-08
8.10201e-08
4.80157e-05
-3.18646e-05
0.000133279
-6.53904e-06
0.000142139
-2.22318e-06
0.000146027
-7.34808e-12
0.000147383
9.50128e-07
0.00014435
9.11139e-07
0.000131588
5.04821e-07
0.000102513
2.37673e-07
5.00689e-05
-1.005e-06
-1.005e-06
0.00028359
1.01528e-06
-1.06321e-05
0.000320504
-2.01416e-08
-8.96165e-06
0.000339386
-1.32737e-07
-4.48253e-06
0.00034905
-3.9836e-08
-2.70761e-11
0.000352159
-2.4351e-07
2.84442e-06
0.000343011
-7.45009e-07
3.23096e-06
0.000306977
-8.02849e-07
1.92191e-06
0.000229239
-1.98942e-07
6.61013e-07
0.000100771
-3.18646e-05
0.000133279
-1.06321e-05
1.01528e-06
0.000320504
-2.61901e-06
-2.61901e-06
0.000433073
-9.20096e-07
-5.42165e-06
0.00047345
-5.01993e-07
-3.51715e-06
0.000488836
-4.9787e-07
3.60645e-11
0.000491133
-9.85442e-07
2.61979e-06
0.000473229
-1.85787e-06
2.87793e-06
0.000415689
-1.53176e-06
1.65341e-06
0.000303727
-2.72835e-07
5.8753e-07
0.000128588
-6.53904e-06
0.000142139
-8.96166e-06
-2.01432e-08
0.000339386
-5.42165e-06
-9.20095e-07
0.00047345
-2.00986e-06
-2.0099e-06
0.000545954
-1.24161e-06
-1.93605e-06
0.000571947
-1.19703e-06
-5.84551e-11
0.00057371
-1.74016e-06
1.59257e-06
0.000546404
-2.46849e-06
1.6293e-06
0.000473018
-1.61764e-06
9.64587e-07
0.000343112
-2.46113e-07
3.5526e-07
0.000143213
-2.22319e-06
0.000146027
-4.48253e-06
-1.3274e-07
0.00034905
-3.51711e-06
-5.0199e-07
0.000488836
-1.93615e-06
-1.24152e-06
0.000571947
-1.19038e-06
-1.19047e-06
0.000607325
-1.10917e-06
-1.69163e-11
0.000609543
-1.44134e-06
1.03307e-06
0.000576864
-1.65122e-06
1.06528e-06
0.000497339
-9.62354e-07
6.12227e-07
0.000360155
-1.36747e-07
2.13683e-07
0.000149495
-7.80139e-12
0.000147383
-1.43435e-11
-3.97917e-08
0.000352159
4.89516e-13
-4.97882e-07
0.000491133
-3.92138e-11
-1.1971e-06
0.00057371
-3.91648e-12
-1.10919e-06
0.000609543
1.9823e-11
4.82946e-11
0.000611609
-7.87719e-12
9.62934e-07
0.00057827
-6.54921e-12
1.02284e-06
0.000498347
-2.75678e-12
6.15581e-07
0.000360546
1.31901e-12
2.18299e-07
0.000149392
9.50102e-07
0.00014435
2.84445e-06
-2.43576e-07
0.000343011
2.61975e-06
-9.85444e-07
0.000473229
1.59258e-06
-1.74017e-06
0.000546404
1.03309e-06
-1.44127e-06
0.000576864
9.62911e-07
7.90716e-12
0.00057827
1.18003e-06
1.18005e-06
0.000547665
1.22104e-06
1.30509e-06
0.000472838
6.60294e-07
8.46078e-07
0.000342391
1.00133e-07
3.12883e-07
0.000142436
9.11261e-07
0.000131588
3.23087e-06
-7.44999e-07
0.000306977
2.87794e-06
-1.85787e-06
0.000415689
1.62936e-06
-2.46842e-06
0.000473018
1.06526e-06
-1.65121e-06
0.000497339
1.02281e-06
-2.06042e-11
0.000498347
1.3051e-06
1.22102e-06
0.000472838
1.3929e-06
1.39287e-06
0.000410099
7.82686e-07
9.24897e-07
0.000299034
1.51198e-07
3.42617e-07
0.000126459
5.04665e-07
0.000102513
1.92191e-06
-8.02851e-07
0.000229239
1.65348e-06
-1.53169e-06
0.000303727
9.64578e-07
-1.61763e-06
0.000343112
6.12208e-07
-9.62406e-07
0.000360155
6.15589e-07
-2.46827e-11
0.000360546
8.46094e-07
6.60271e-07
0.000342391
9.24905e-07
7.82679e-07
0.000299034
5.6277e-07
5.62792e-07
0.00022184
1.48857e-07
2.21512e-07
9.76995e-05
2.37669e-07
5.00689e-05
6.61078e-07
-1.98864e-07
0.000100771
5.87541e-07
-2.72843e-07
0.000128588
3.55261e-07
-2.46236e-07
0.000143213
2.13685e-07
-1.36789e-07
0.000149495
2.18278e-07
2.8098e-12
0.000149392
3.12874e-07
1.00142e-07
0.000142436
3.42612e-07
1.51243e-07
0.000126459
2.21498e-07
1.48889e-07
9.76995e-05
7.33444e-08
7.33403e-08
4.7869e-05
-2.68431e-05
0.00011705
-7.43768e-06
0.000135193
-3.64093e-06
0.000143536
-1.48872e-06
0.000147383
-5.1029e-11
0.000148293
6.57651e-07
0.00014436
6.54335e-07
0.000130694
3.93709e-07
0.000101554
1.98861e-07
4.96711e-05
-2.68431e-05
0.00011705
-1.3249e-06
-1.32491e-06
0.000264976
-5.01026e-07
-8.06267e-06
0.000317487
-2.1487e-07
-7.08534e-06
0.000341284
-3.98229e-08
-3.57156e-06
0.000352159
-5.1725e-08
3.15022e-11
0.000354557
-3.05869e-07
2.27075e-06
0.000343292
-7.04296e-07
2.53424e-06
0.000305212
-6.61066e-07
1.5317e-06
0.000227497
-1.69249e-07
5.48344e-07
0.00010012
-7.43767e-06
0.000135193
-8.06267e-06
-5.01025e-07
0.000317487
-2.75448e-06
-2.75448e-06
0.000427739
-9.12786e-07
-4.60476e-06
0.000473441
-4.97889e-07
-3.0404e-06
0.000491133
-5.32691e-07
-4.47595e-11
0.000493089
-9.98014e-07
2.24858e-06
0.000473117
-1.65345e-06
2.46847e-06
0.000414059
-1.24595e-06
1.46875e-06
0.000302474
-2.39338e-07
5.2926e-07
0.000128052
-3.64095e-06
0.000143536
-7.08534e-06
-2.14872e-07
0.000341284
-4.60472e-06
-9.128e-07
0.000473441
-1.92811e-06
-1.92801e-06
0.000545938
-1.197e-06
-1.75729e-06