/*--------------------------------*- C++ -*----------------------------------*\
  =========                 |
  \\      /  F ield         | OpenFOAM: The Open Source CFD Toolbox
   \\    /   O peration     | Website:  https://openfoam.org
    \\  /    A nd           | Version:  12
     \\/     M anipulation  |
\*---------------------------------------------------------------------------*/
FoamFile
{
    format      ascii;
    class       volVectorField;
    location    "150";
    object      U;
}
// * * * * * * * * * * * * * * * * * * * * * * * * * * * * * * * * * * * * * //

dimensions      [0 1 -1 0 0 0 0];

internalField   nonuniform List<vector> 
10000
(
(0.0139132 0.0139132 0.699812)
(0.0298373 0.00308426 1.11185)
(0.00308426 0.0298373 1.11185)
(0.00228313 0.00228313 0.609228)
(0.029984 -0.00214286 1.24591)
(0.0116733 0.0116733 2.89393)
(0.0079695 -0.000126172 1.14898)
(-0.00214286 0.029984 1.24591)
(-0.000126172 0.0079695 1.14898)
(0.00052519 0.000525189 0.563857)
(0.0198968 -0.00261844 1.27903)
(0.0208395 -0.0001123 3.19978)
(0.00847972 -0.0010713 1.34421)
(-0.000112299 0.0208395 3.19978)
(0.00613479 0.00613479 2.71707)
(0.00330775 6.03542e-05 1.1239)
(-0.00261844 0.0198968 1.27903)
(-0.0010713 0.00847972 1.34421)
(6.0355e-05 0.00330775 1.1239)
(0.000115188 0.000115188 0.534396)
(0.00687533 -0.00231168 1.28297)
(0.0156889 -0.00192464 3.26131)
(0.00564263 -0.00103789 1.40248)
(0.00719252 0.00719252 4.51868)
(0.0132948 -0.000888484 3.21372)
(0.00428817 -9.11522e-06 1.35739)
(-0.00192464 0.0156889 3.26131)
(-0.000888483 0.0132948 3.21372)
(0.00486206 0.00486206 2.58163)
(0.0016092 0.000159691 1.08623)
(-0.00231168 0.00687533 1.28297)
(-0.00103789 0.00564262 1.40248)
(-9.11494e-06 0.00428817 1.35739)
(0.000159691 0.0016092 1.08623)
(2.33133e-05 2.33263e-05 0.52118)
(-0.0068753 -0.00231168 1.28297)
(0.00541658 -0.00143856 3.27074)
(0.00196759 -0.000941343 1.41466)
(0.00991696 0.000757123 4.68678)
(0.00991751 -0.00176078 3.34086)
(0.00320036 2.99989e-05 1.43679)
(0.000757124 0.00991696 4.68678)
(0.00510381 0.00510381 4.43629)
(0.0102994 0.000563877 3.19471)
(0.00255924 0.00014739 1.34337)
(-0.00143856 0.00541658 3.27074)
(-0.00176078 0.00991751 3.34086)
(0.000563879 0.0102994 3.19471)
(0.00376621 0.00376621 2.47887)
(0.000790343 0.00019027 1.06056)
(-0.00231168 -0.0068753 1.28297)
(-0.000941343 0.00196759 1.41466)
(2.99983e-05 0.00320036 1.43679)
(0.000147389 0.00255924 1.34337)
(0.000190259 0.000790377 1.06056)
(4.2398e-05 4.23665e-05 0.513997)
(-0.0198968 -0.00261844 1.27903)
(-0.00541656 -0.00143856 3.27074)
(-0.00196756 -0.000941343 1.41466)
(0.00393768 3.57132e-05 4.7081)
(0.00341298 -0.00146782 3.36629)
(0.00118473 6.38113e-05 1.45772)
(0.00374978 0.00374978 5.49415)
(0.00733293 0.000325287 4.72052)
(0.00804408 -0.000258087 3.38609)
(0.00212867 9.18667e-05 1.44108)
(3.57142e-05 0.00393768 4.7081)
(0.000325289 0.00733293 4.72052)
(0.0051267 0.0051267 4.36414)
(0.00785606 0.00113248 3.16032)
(0.00148934 0.000142 1.33052)
(-0.00143856 -0.00541656 3.27074)
(-0.00146782 0.00341297 3.36629)
(-0.000258087 0.00804408 3.38609)
(0.00113248 0.00785606 3.16032)
(0.0027671 0.00276712 2.40889)
(0.000504947 0.000229777 1.04353)
(-0.00261844 -0.0198968 1.27903)
(-0.000941342 -0.00196756 1.41466)
(6.38101e-05 0.00118473 1.45772)
(9.18658e-05 0.00212867 1.44108)
(0.000141999 0.00148939 1.33052)
(0.000229804 0.000504866 1.04353)
(5.42388e-05 5.42831e-05 0.508061)
(-0.029984 -0.00214286 1.24591)
(-0.0156889 -0.00192464 3.26131)
(-0.0056426 -0.00103789 1.40248)
(-0.00393766 3.57145e-05 4.7081)
(-0.00341294 -0.00146782 3.36629)
(-0.00118472 6.38106e-05 1.45772)
(0.0026435 0.00166186 5.57052)
(0.00280706 8.03143e-05 4.77002)
(0.00288143 -0.00019855 3.43179)
(0.000824297 8.12608e-05 1.47006)
(0.00166186 0.0026435 5.57052)
(0.00281563 0.00281563 5.48515)
(0.0066557 0.00122245 4.73409)
(0.00653736 0.000242354 3.4069)
(0.00136176 2.8908e-05 1.44271)
(3.57152e-05 -0.00393766 4.7081)
(8.03159e-05 0.00280705 4.77002)
(0.00122245 0.0066557 4.73409)
(0.00471632 0.00471632 4.30176)
(0.00581117 0.00121464 3.12866)
(0.000969301 0.000171201 1.3204)
(-0.00192464 -0.0156889 3.26131)
(-0.00146781 -0.00341295 3.36629)
(-0.000198549 0.00288143 3.43179)
(0.000242354 0.00653736 3.4069)
(0.00121463 0.00581119 3.12867)
(0.0020951 0.00209506 2.36139)
(0.000392271 0.000236656 1.03045)
(-0.00214286 -0.029984 1.24591)
(-0.00103789 -0.0056426 1.40248)
(6.38101e-05 -0.00118472 1.45772)
(8.12596e-05 0.000824296 1.47006)
(2.89149e-05 0.0013618 1.44271)
(0.000171206 0.000969203 1.3204)
(0.000236617 0.000392384 1.03045)
(5.19963e-05 5.19819e-05 0.502892)
(-0.0298373 0.00308426 1.11185)
(-0.0208395 -0.000112294 3.19978)
(-0.0084797 -0.0010713 1.34421)
(-0.00991694 0.000757126 4.68678)
(-0.00991748 -0.00176078 3.34086)
(-0.00320035 2.99982e-05 1.43679)
(-0.00264348 0.00166186 5.57052)
(-0.00280703 8.03153e-05 4.77002)
(-0.00288141 -0.000198549 3.43179)
(-0.000824317 8.12622e-05 1.47006)
(0.00120437 0.00120437 5.86463)
(0.00212498 0.00155262 5.61551)
(0.00257357 0.00088967 4.81534)
(0.00244395 0.000125655 3.47415)
(0.000548786 -1.40402e-05 1.47894)
(0.00166186 -0.00264348 5.57052)
(0.00155262 0.00212498 5.61551)
(0.00296686 0.00296686 5.47531)
(0.00588426 0.00150569 4.73518)
(0.00515992 0.000333623 3.41974)
(0.000942807 4.22928e-05 1.4438)
(0.000757127 -0.00991694 4.68678)
(8.03166e-05 -0.00280703 4.77002)
(0.000889672 0.00257357 4.81534)
(0.00150569 0.00588426 4.73518)
(0.00407155 0.00407157 4.25383)
(0.00434091 0.00122548 3.10202)
(0.000692342 0.0001929 1.31119)
(-0.000112294 -0.0208395 3.19978)
(-0.00176078 -0.00991749 3.34086)
(-0.000198548 -0.00288141 3.43179)
(0.000125653 0.00244394 3.47415)
(0.00033362 0.00515994 3.41974)
(0.0012255 0.00434086 3.10202)
(0.00164583 0.0016459 2.32745)
(0.000321234 0.000215595 1.01988)
(0.00308426 -0.0298373 1.11185)
(-0.0010713 -0.0084797 1.34421)
(2.9999e-05 -0.00320034 1.43679)
(8.1259e-05 -0.000824318 1.47006)
(-1.40271e-05 0.000548791 1.47894)
(4.2277e-05 0.000942742 1.4438)
(0.000192881 0.000692482 1.31119)
(0.000215606 0.000321207 1.01988)
(4.67687e-05 4.67343e-05 0.498558)
(-0.0139132 0.0139132 0.699812)
(-0.0116733 0.0116733 2.89393)
(-0.00796949 -0.000126169 1.14898)
(-0.00719251 0.00719253 4.51868)
(-0.0132948 -0.000888479 3.21372)
(-0.00428817 -9.11558e-06 1.35739)
(-0.00374977 0.00374978 5.49415)
(-0.00733291 0.00032529 4.72052)
(-0.00804406 -0.000258086 3.38609)
(-0.00212869 9.18685e-05 1.44108)
(-0.00120435 0.00120437 5.86463)
(-0.00212496 0.00155262 5.61551)
(-0.00257355 0.000889671 4.81534)
(-0.00244395 0.000125653 3.47415)
(-0.000548856 -1.4045e-05 1.47894)
(0.00120437 -0.00120435 5.86463)
(0.00111999 0.00111999 5.91431)
(0.00199553 0.00190324 5.64726)
(0.00234824 0.00102721 4.84762)
(0.00200341 0.000103543 3.50782)
(0.000391655 -1.82103e-05 1.48643)
(0.00374978 -0.00374977 5.49415)
(0.00155262 -0.00212496 5.61551)
(0.00190325 0.00199553 5.64726)
(0.0028752 0.0028752 5.46515)
(0.00503767 0.00149371 4.7346)
(0.00407717 0.000420445 3.42792)
(0.000690963 7.24116e-05 1.44324)
(0.00719253 -0.00719251 4.51868)
(0.000325291 -0.00733291 4.72052)
(0.000889673 -0.00257355 4.81534)
(0.00102721 0.00234823 4.84762)
(0.0014937 0.00503769 4.7346)
(0.00350796 0.00350792 4.21728)
(0.00329913 0.00120522 3.07939)
(0.000517065 0.000192601 1.30275)
(0.0116733 -0.0116733 2.89393)
(-0.00088848 -0.0132948 3.21372)
(-0.000258084 -0.00804406 3.38609)
(0.00012565 -0.00244395 3.47415)
(0.000103548 0.00200341 3.50782)
(0.000420448 0.00407714 3.42792)
(0.00120518 0.00329921 3.07939)
(0.00132156 0.00132155 2.30214)
(0.000270451 0.00018595 1.01128)
(0.0139132 -0.0139132 0.699812)
(-0.00012617 -0.00796949 1.14898)
(-9.11366e-06 -0.00428816 1.35739)
(9.18661e-05 -0.00212868 1.44108)
(-1.40295e-05 -0.000548891 1.47894)
(-1.82393e-05 0.000391671 1.48643)
(7.24161e-05 0.00069107 1.44324)
(0.000192615 0.000517033 1.30275)
(0.000185983 0.000270356 1.01128)
(4.19128e-05 4.19319e-05 0.49491)
(-0.00308425 0.0298373 1.11185)
(-0.00228313 0.00228314 0.609228)
(0.000112311 0.0208395 3.19978)
(-0.00613478 0.0061348 2.71707)
(-0.00330775 6.03546e-05 1.1239)
(-0.000757109 0.00991696 4.68678)
(-0.00510379 0.00510381 4.43629)
(-0.0102994 0.000563878 3.19471)
(-0.00255926 0.000147388 1.34337)
(-0.00166184 0.0026435 5.57052)
(-0.00281561 0.00281563 5.48515)
(-0.00665569 0.00122245 4.73409)
(-0.00653736 0.000242351 3.4069)
(-0.00136182 2.88979e-05 1.44271)
(-0.00120435 -0.00120435 5.86463)
(-0.00111997 0.00111999 5.91431)
(-0.00199552 0.00190325 5.64726)
(-0.00234824 0.00102721 4.84762)
(-0.00200345 0.000103543 3.50782)
(-0.000391675 -1.82097e-05 1.48643)
(0.0026435 -0.00166184 5.57052)
(0.00111999 -0.00111997 5.91431)
(0.00118988 0.00118988 5.95287)
(0.00180704 0.00188665 5.66968)
(0.00207979 0.000926766 4.87577)
(0.00163445 0.000128953 3.535)
(0.000292527 5.94414e-06 1.49139)
(0.00991696 -0.000757109 4.68678)
(0.00281563 -0.00281561 5.48515)
(0.00190325 -0.00199552 5.64726)
(0.00188666 0.00180704 5.66968)
(0.00264361 0.00264363 5.46)
(0.00430512 0.00148292 4.73391)
(0.0032357 0.000509787 3.43219)
(0.000517516 8.94074e-05 1.44141)
(0.0208395 0.000112311 3.19978)
(0.00510381 -0.00510379 4.43629)
(0.00122246 -0.00665568 4.73409)
(0.00102721 -0.00234824 4.84762)
(0.000926759 0.00207979 4.87577)
(0.00148294 0.00430509 4.73391)
(0.00303264 0.0030327 4.18866)
(0.00254774 0.00114768 3.06021)
(0.000402045 0.000180365 1.29528)
(0.0298373 -0.00308425 1.11185)
(0.0061348 -0.00613478 2.71707)
(0.000563882 -0.0102994 3.19471)
(0.000242349 -0.00653736 3.4069)
(0.000103549 -0.00200346 3.50782)
(0.000128943 0.00163446 3.535)
(0.000509772 0.00323576 3.43219)
(0.00114769 0.00254773 3.06021)
(0.00107955 0.00107949 2.28269)
(0.00023446 0.000157484 1.00419)
(0.00228314 -0.00228313 0.609228)
(6.03568e-05 -0.00330774 1.1239)
(0.000147388 -0.00255926 1.34337)
(2.8901e-05 -0.00136189 1.44271)
(-1.82349e-05 -0.000391558 1.48643)
(5.96126e-06 0.000292547 1.49139)
(8.9425e-05 0.000517477 1.44141)
(0.000180377 0.000401927 1.29528)
(0.000157469 0.0002345 1.00419)
(3.75242e-05 3.755e-05 0.49178)
(0.00214287 0.029984 1.24591)
(0.000126177 0.0079695 1.14898)
(-0.00052519 0.000525188 0.563857)
(0.00192465 0.0156889 3.26131)
(0.000888498 0.0132948 3.21372)
(-0.00486205 0.00486206 2.58163)
(-0.00160921 0.000159685 1.08623)
(-3.56993e-05 0.00393768 4.7081)
(-0.00032527 0.00733293 4.72052)
(-0.00512669 0.0051267 4.36414)
(-0.00785606 0.00113247 3.16032)
(-0.00148938 0.000141992 1.33052)
(-0.00166184 -0.00264348 5.57052)
(-0.0015526 0.00212498 5.61551)
(-0.00296685 0.00296686 5.47531)
(-0.00588426 0.00150568 4.73518)
(-0.00515996 0.000333622 3.41974)
(-0.000942832 4.22931e-05 1.4438)
(-0.00264348 -0.00166184 5.57052)
(-0.00111997 -0.00111997 5.91431)
(-0.00118986 0.00118988 5.95287)
(-0.00180704 0.00188666 5.66968)
(-0.00207981 0.000926764 4.87577)
(-0.00163449 0.000128951 3.535)
(-0.000292554 5.94826e-06 1.49139)
(0.00393768 -3.56995e-05 4.7081)
(0.00212498 -0.0015526 5.61551)
(0.00118988 -0.00118986 5.95287)
(0.00113854 0.00113854 5.98266)
(0.00159232 0.00172882 5.69041)
(0.00182923 0.000885618 4.90065)
(0.00133109 0.000193703 3.55603)
(0.000221476 2.39043e-05 1.49423)
(0.0156889 0.00192466 3.26131)
(0.00733293 -0.000325272 4.72052)
(0.00296687 -0.00296685 5.47531)
(0.00188666 -0.00180705 5.66968)
(0.00172881 0.00159232 5.69042)
(0.00244025 0.00244023 5.45881)
(0.00368009 0.00147053 4.7329)
(0.00257652 0.000570011 3.4337)
(0.000395906 9.58751e-05 1.43897)
(0.029984 0.00214287 1.24591)
(0.0132948 0.000888497 3.21372)
(0.00512671 -0.00512669 4.36414)
(0.00150568 -0.00588426 4.73518)
(0.000926756 -0.00207983 4.87577)
(0.000885637 0.00182924 4.90065)
(0.00147049 0.00368014 4.7329)
(0.00262142 0.00262141 4.16596)
(0.00200238 0.00106774 3.04407)
(0.000326862 0.000164118 1.28875)
(0.0079695 0.000126177 1.14898)
(0.00486207 -0.00486205 2.58163)
(0.00113247 -0.00785606 3.16032)
(0.000333615 -0.00516 3.41974)
(0.000128947 -0.00163442 3.535)
(0.0001937 0.0013311 3.55603)
(0.000570019 0.0025765 3.4337)
(0.00106777 0.00200232 3.04407)
(0.000896902 0.000896921 2.2673)
(0.000207662 0.000132782 0.998235)
(0.00052519 -0.000525188 0.563857)
(0.000159687 -0.0016092 1.08623)
(0.000141978 -0.00148946 1.33052)
(4.22977e-05 -0.000942645 1.4438)
(5.95803e-06 -0.000292642 1.49139)
(2.39247e-05 0.00022143 1.49423)
(9.58645e-05 0.000395819 1.43897)
(0.000164103 0.000326911 1.28875)
(0.000132757 0.000207735 0.998235)
(3.3551e-05 3.35406e-05 0.489055)
(0.00261844 0.0198968 1.27903)
(0.00107131 0.00847972 1.34421)
(-6.03538e-05 0.00330774 1.1239)
(-0.000115193 0.000115183 0.534396)
(0.00143858 0.00541658 3.27074)
(0.00176079 0.00991751 3.34086)
(-0.00056387 0.0102994 3.19471)
(-0.00376621 0.00376621 2.47887)
(-0.000790361 0.000190271 1.06056)
(-3.57004e-05 -0.00393766 4.7081)
(-8.02969e-05 0.00280705 4.77002)
(-0.00122244 0.0066557 4.73409)
(-0.00471632 0.00471631 4.30176)
(-0.0058112 0.00121464 3.12866)
(-0.000969331 0.000171197 1.3204)
(-0.00374977 -0.00374977 5.49415)
(-0.0015526 -0.00212496 5.61551)
(-0.00190323 0.00199553 5.64726)
(-0.0028752 0.0028752 5.46515)
(-0.0050377 0.00149371 4.7346)
(-0.0040772 0.000420437 3.42792)
(-0.000690981 7.24197e-05 1.44324)
(-0.00393766 -3.57009e-05 4.7081)
(-0.00212496 -0.0015526 5.61551)
(-0.00118986 -0.00118986 5.95287)
(-0.00113854 0.00113854 5.98266)
(-0.00159235 0.00172881 5.69041)
(-0.00182925 0.000885627 4.90065)
(-0.00133112 0.000193697 3.55603)
(-0.000221473 2.39009e-05 1.49423)
(0.00541659 0.00143858 3.27074)
(0.00280706 -8.02987e-05 4.77002)
(0.00199553 -0.00190323 5.64726)
(0.00113855 -0.00113855 5.98266)
(0.00103695 0.00103695 6.0105)
(0.00141014 0.00161026 5.71022)
(0.00159886 0.000883421 4.92192)
(0.00108174 0.000253753 3.57195)
(0.00016983 3.51363e-05 1.49568)
(0.0198968 0.00261844 1.27903)
(0.00991751 0.00176079 3.34086)
(0.00665571 -0.00122244 4.73409)
(0.0028752 -0.0028752 5.46515)
(0.0017288 -0.00159236 5.69042)
(0.00161028 0.00141015 5.71022)
(0.00225538 0.00225542 5.45987)
(0.00314158 0.00143465 4.73173)
(0.00206304 0.000602025 3.43345)
(0.000311551 9.67454e-05 1.43628)
(0.00847972 0.00107131 1.34421)
(0.0102994 -0.00056387 3.19471)
(0.00471631 -0.00471631 4.30176)
(0.00149369 -0.00503773 4.7346)
(0.000885653 -0.00182919 4.90065)
(0.000883384 0.00159886 4.92192)
(0.00143465 0.00314157 4.73173)
(0.00226901 0.00226897 4.14786)
(0.00160467 0.000980241 3.03049)
(0.000276352 0.000147091 1.28304)
(0.00330775 -6.03525e-05 1.1239)
(0.00376621 -0.00376621 2.47887)
(0.00121461 -0.00581124 3.12867)
(0.000420463 -0.0040771 3.42792)
(0.000193688 -0.00133117 3.55603)
(0.000253763 0.00108172 3.57195)
(0.000602033 0.002063 3.43345)
(0.000980229 0.00160469 3.03049)
(0.000756796 0.000756842 2.25478)
(0.000186239 0.000112157 0.993138)
(0.000115185 -0.000115191 0.534396)
(0.000190246 -0.000790416 1.06056)
(0.000171235 -0.000969143 1.3204)
(7.24055e-05 -0.000691145 1.44324)
(2.39208e-05 -0.000221524 1.49423)
(3.51126e-05 0.000169824 1.49568)
(9.67287e-05 0.000311603 1.43628)
(0.00014708 0.000276445 1.28304)
(0.000112164 0.000186221 0.993138)
(3.00276e-05 3.00064e-05 0.486659)
(0.00231169 0.00687533 1.28297)
(0.0010379 0.00564262 1.40248)
(9.11629e-06 0.00428816 1.3574)
(-0.000159693 0.00160919 1.08623)
(-2.33164e-05 2.33278e-05 0.52118)
(0.00143857 -0.00541657 3.27074)
(0.00146783 0.00341297 3.36629)
(0.000258093 0.00804408 3.38609)
(-0.00113248 0.00785605 3.16032)
(-0.00276712 0.00276711 2.40889)
(-0.000504976 0.00022976 1.04353)
(-0.000757112 -0.00991695 4.68678)
(-8.02976e-05 -0.00280704 4.77002)
(-0.000889663 0.00257357 4.81534)
(-0.00150568 0.00588425 4.73518)
(-0.00407157 0.00407156 4.25383)
(-0.00434093 0.00122546 3.10202)
(-0.000692347 0.000192905 1.31119)
(-0.00991695 -0.000757113 4.68678)
(-0.00281561 -0.00281562 5.48516)
(-0.00190323 -0.00199552 5.64726)
(-0.00188666 0.00180704 5.66968)
(-0.00264363 0.00264361 5.46)
(-0.00430514 0.00148293 4.73391)
(-0.00323573 0.000509775 3.43219)
(-0.000517514 8.94005e-05 1.44141)
(-0.00541657 0.00143857 3.27074)
(-0.00280703 -8.02996e-05 4.77002)
(-0.00199552 -0.00190323 5.64726)
(-0.00113854 -0.00113854 5.98266)
(-0.001037 0.00103694 6.0105)
(-0.00141013 0.00161028 5.71022)
(-0.0015989 0.000883404 4.92192)
(-0.00108176 0.000253759 3.57195)
(-0.000169803 3.51348e-05 1.49568)
(0.00687533 0.00231169 1.28297)
(0.00341297 0.00146783 3.36629)
(0.00257357 -0.000889662 4.81534)
(0.00180704 -0.00188666 5.66968)
(0.00103694 -0.00103702 6.0105)
(0.000949274 0.000949286 6.03702)
(0.00125427 0.001517 5.72863)
(0.00138779 0.000882698 4.93989)
(0.000879477 0.000301419 3.5839)
(0.000132717 4.24533e-05 1.49619)
(0.00564263 0.0010379 1.40248)
(0.00804408 0.000258092 3.38609)
(0.00588426 -0.00150568 4.73518)
(0.00264359 -0.00264367 5.46)
(0.0016103 -0.00141007 5.71022)
(0.00151696 0.00125427 5.72863)
(0.00207389 0.00207389 5.46234)
(0.00268186 0.00138061 4.73064)
(0.00166563 0.000614161 3.43212)
(0.00025261 9.42612e-05 1.43351)
(0.00428817 9.11588e-06 1.3574)
(0.00785605 -0.00113247 3.16032)
(0.00407153 -0.0040716 4.25383)
(0.00148298 -0.00430506 4.73391)
(0.00088336 -0.00159894 4.92192)
(0.000882703 0.00138778 4.93989)
(0.00138065 0.00268183 4.73064)
(0.0019713 0.00197132 4.13334)
(0.00131121 0.000892944 3.01901)
(0.000240661 0.000130753 1.27803)
(0.00160919 -0.000159692 1.08623)
(0.00276708 -0.00276714 2.40889)
(0.00122552 -0.00434084 3.10202)
(0.000509742 -0.00323581 3.43219)
(0.000253765 -0.00108179 3.57195)
(0.000301415 0.000879481 3.5839)
(0.00061415 0.00166565 3.43212)
(0.000892919 0.00131126 3.01901)
(0.000647071 0.000647065 2.24437)
(0.000168262 9.53009e-05 0.98872)
(2.33034e-05 -2.33379e-05 0.52118)
(0.000229819 -0.000504843 1.04353)
(0.000192866 -0.000692521 1.31119)
(8.94092e-05 -0.000517563 1.44141)
(3.5118e-05 -0.000169712 1.49568)
(4.24358e-05 0.000132764 1.49619)
(9.42683e-05 0.000252679 1.43351)
(0.000130763 0.000240638 1.27803)
(9.53212e-05 0.000168203 0.98872)
(2.69515e-05 2.69502e-05 0.484536)
(0.00231169 -0.00687531 1.28297)
(0.000941348 0.00196759 1.41466)
(-2.99965e-05 0.00320035 1.43679)
(-0.000147391 0.00255924 1.34337)
(-0.000190262 0.000790375 1.06056)
(-4.24116e-05 4.23491e-05 0.513997)
(0.00192465 -0.0156889 3.26131)
(0.00146783 -0.00341295 3.36629)
(0.000198555 0.00288143 3.43179)
(-0.000242351 0.00653735 3.4069)
(-0.00121464 0.00581119 3.12867)
(-0.00209511 0.00209504 2.36139)
(-0.000392263 0.000236662 1.03045)
(-0.00719251 -0.00719251 4.51868)
(-0.000325272 -0.00733291 4.72052)
(-0.000889664 -0.00257355 4.81534)
(-0.00102721 0.00234823 4.84762)
(-0.00149372 0.00503768 4.7346)
(-0.00350798 0.00350793 4.21728)
(-0.00329915 0.00120521 3.07939)
(-0.000517064 0.000192597 1.30275)
(-0.0156889 0.00192465 3.26131)
(-0.00733291 -0.000325274 4.72052)
(-0.00296685 -0.00296685 5.47531)
(-0.00188666 -0.00180704 5.66968)
(-0.00172883 0.0015923 5.69041)
(-0.00244027 0.00244027 5.45881)
(-0.00368012 0.00147049 4.7329)
(-0.00257654 0.000570023 3.4337)
(-0.000395885 9.58728e-05 1.43897)
(-0.0068753 0.00231169 1.28297)
(-0.00341295 0.00146783 3.36629)
(-0.00257355 -0.000889663 4.81534)
(-0.00180704 -0.00188666 5.66968)
(-0.001037 -0.00103702 6.0105)
(-0.000949228 0.000949304 6.03702)
(-0.00125434 0.00151698 5.72863)
(-0.00138779 0.000882703 4.93989)
(-0.000879482 0.000301422 3.5839)
(-0.000132704 4.24564e-05 1.49619)
(0.00196759 0.000941349 1.41466)
(0.00288143 0.000198552 3.43179)
(0.00234824 -0.00102721 4.84762)
(0.00159229 -0.00172886 5.69041)
(0.000949294 -0.000949167 6.03702)
(0.000872349 0.000872349 6.06177)
(0.00111635 0.00142835 5.74562)
(0.00119863 0.000877998 4.95509)
(0.000717385 0.000338734 3.59277)
(0.000105996 4.67937e-05 1.49604)
(0.00320036 -2.99986e-05 1.43679)
(0.00653735 -0.000242349 3.4069)
(0.00503765 -0.00149374 4.7346)
(0.00244031 -0.00244018 5.45881)
(0.00151694 -0.00125438 5.72863)
(0.00142835 0.00111634 5.74562)
(0.00189846 0.00189843 5.46577)
(0.00229377 0.00131725 4.72974)
(0.00135828 0.000611831 3.43014)
(0.000210645 8.98697e-05 1.43077)
(0.00255924 -0.000147391 1.34337)
(0.00581115 -0.00121466 3.12866)
(0.003508 -0.00350791 4.21728)
(0.00147044 -0.00368018 4.7329)
(0.000882704 -0.00138782 4.93989)
(0.000878025 0.00119863 4.95509)
(0.00131724 0.00229379 4.72974)
(0.00172086 0.00172089 4.12162)
(0.00109101 0.000809626 3.00922)
(0.000214086 0.000115848 1.2736)
(0.00079032 -0.000190277 1.06056)
(0.00209512 -0.00209505 2.36139)
(0.00120515 -0.00329924 3.07939)
(0.000570019 -0.00257657 3.4337)
(0.000301425 -0.000879429 3.5839)
(0.000338724 0.000717407 3.59277)
(0.000611824 0.00135831 3.43014)
(0.000809631 0.00109101 3.00922)
(0.000559451 0.000559416 2.23554)
(0.000152778 8.16434e-05 0.984849)
(4.24054e-05 -4.23609e-05 0.513997)
(0.000236607 -0.000392395 1.03045)
(0.000192594 -0.000517097 1.30275)
(9.58804e-05 -0.000395729 1.43897)
(4.24393e-05 -0.000132668 1.49619)
(4.68109e-05 0.000106005 1.49604)
(8.98854e-05 0.000210615 1.43077)
(0.00011586 0.000214011 1.2736)
(8.16465e-05 0.000152766 0.984849)
(2.42854e-05 2.42989e-05 0.48264)
(0.00261844 -0.0198968 1.27903)
(0.000941347 -0.00196757 1.41466)
(-6.3807e-05 0.00118473 1.45772)
(-9.18677e-05 0.00212866 1.44108)
(-0.000141998 0.00148939 1.33052)
(-0.000229818 0.000504837 1.04353)
(-5.42295e-05 5.42967e-05 0.508061)
(0.000112306 -0.0208395 3.19978)
(0.00176079 -0.00991749 3.34086)
(0.000198552 -0.00288141 3.43179)
(-0.000125647 0.00244394 3.47415)
(-0.000333634 0.00515994 3.41974)
(-0.00122551 0.00434085 3.10202)
(-0.00164585 0.00164589 2.32745)
(-0.000321232 0.0002156 1.01988)
(-0.0208395 0.000112305 3.19978)
(-0.00510379 -0.0051038 4.43629)
(-0.00122245 -0.00665569 4.73409)
(-0.00102721 -0.00234824 4.84762)
(-0.00092676 0.00207978 4.87577)
(-0.00148297 0.00430512 4.73391)
(-0.00303265 0.00303266 4.18866)
(-0.00254776 0.00114769 3.06021)
(-0.000402035 0.000180366 1.29528)
(-0.0198968 0.00261844 1.27903)
(-0.00991749 0.00176079 3.34086)
(-0.00665569 -0.00122245 4.73409)
(-0.0028752 -0.0028752 5.46515)
(-0.00172882 -0.00159237 5.69041)
(-0.00161029 0.00141019 5.71022)
(-0.00225541 0.00225537 5.45987)
(-0.00314159 0.00143466 4.73173)
(-0.00206305 0.00060203 3.43345)
(-0.000311537 9.67525e-05 1.43628)
(-0.00196756 0.000941348 1.41466)
(-0.00288141 0.00019855 3.43179)
(-0.00234823 -0.00102721 4.84762)
(-0.00159235 -0.00172885 5.69041)
(-0.000949229 -0.000949166 6.03703)
(-0.000872452 0.000872336 6.06177)
(-0.00111636 0.00142835 5.74562)
(-0.00119862 0.000878009 4.95509)
(-0.000717383 0.00033873 3.59277)
(-0.000106004 4.67957e-05 1.49604)
(0.00118473 -6.38101e-05 1.45772)
(0.00244394 -0.000125647 3.47415)
(0.00207977 -0.000926778 4.87577)
(0.00141018 -0.00161021 5.71022)
(0.000872334 -0.000872493 6.06177)
(0.000800767 0.000800756 6.08476)
(0.000994052 0.00134295 5.76135)
(0.00103263 0.000870835 4.96796)
(0.000588252 0.000366393 3.59925)
(8.6577e-05 4.89784e-05 1.49543)
(0.00212867 -9.18702e-05 1.44108)
(0.00515992 -0.000333634 3.41974)
(0.00430517 -0.00148293 4.73391)
(0.00225532 -0.00225547 5.45987)
(0.00142835 -0.00111638 5.74562)
(0.00134297 0.00099406 5.76135)
(0.00173367 0.00173368 5.46985)
(0.00196797 0.00124906 4.72904)
(0.00111983 0.000598902 3.42777)
(0.000180153 8.46155e-05 1.42811)
(0.00148933 -0.000141997 1.33052)
(0.00434093 -0.00122549 3.10202)
(0.00303259 -0.00303271 4.18866)
(0.00143465 -0.00314162 4.73173)
(0.000878043 -0.00119858 4.95509)
(0.000870825 0.00103265 4.96796)
(0.00124903 0.00196799 4.72904)
(0.00150981 0.00150981 4.11208)
(0.000922709 0.000732292 3.00081)
(0.000193363 0.000102613 1.26968)
(0.000504963 -0.000229785 1.04353)
(0.00164581 -0.00164591 2.32745)
(0.00114768 -0.00254778 3.06021)
(0.000602057 -0.00206296 3.43345)
(0.000338724 -0.000717358 3.59277)
(0.000366394 0.000588255 3.59925)
(0.000598909 0.00111982 3.42777)
(0.000732312 0.000922669 3.00081)
(0.000488306 0.000488295 2.22794)
(0.000139251 7.05617e-05 0.981426)
(5.4238e-05 -5.42835e-05 0.508061)
(0.000215593 -0.000321243 1.01988)
(0.000180398 -0.000401875 1.29528)
(9.67421e-05 -0.000311515 1.43628)
(4.68073e-05 -0.000106067 1.49604)
(4.89969e-05 8.65372e-05 1.49543)
(8.4616e-05 0.000180092 1.42811)
(0.00010261 0.000193348 1.26968)
(7.05495e-05 0.000139284 0.981426)
(2.1975e-05 2.19836e-05 0.480936)
(0.00214287 -0.029984 1.24591)
(0.0010379 -0.00564261 1.40248)
(-6.38061e-05 -0.00118472 1.45772)
(-8.12635e-05 0.000824298 1.47006)
(-2.89185e-05 0.0013618 1.44271)
(-0.000171217 0.00096918 1.3204)
(-0.000236609 0.000392401 1.03045)
(-5.19959e-05 5.19854e-05 0.502892)
(-0.0116733 -0.0116733 2.89393)
(0.000888494 -0.0132948 3.21372)
(0.000258088 -0.00804406 3.38609)
(-0.000125644 -0.00244395 3.47415)
(-0.000103561 0.00200341 3.50782)
(-0.000420462 0.00407713 3.42792)
(-0.00120519 0.00329919 3.07939)
(-0.00132157 0.00132156 2.30214)
(-0.000270452 0.000185949 1.01128)
(-0.029984 0.00214287 1.24591)
(-0.0132948 0.000888492 3.21372)
(-0.0051267 -0.00512669 4.36414)
(-0.00150568 -0.00588425 4.73518)
(-0.00092675 -0.00207983 4.87577)
(-0.000885692 0.00182926 4.90065)
(-0.00147048 0.00368009 4.7329)
(-0.00262144 0.00262143 4.16596)
(-0.00200238 0.00106774 3.04407)
(-0.000326849 0.000164125 1.28875)
(-0.0056426 0.0010379 1.40248)
(-0.00804407 0.000258089 3.38609)
(-0.00588425 -0.00150568 4.73518)
(-0.00264361 -0.00264365 5.46)
(-0.00161031 -0.00141006 5.71022)
(-0.00151701 0.00125424 5.72863)
(-0.0020739 0.00207389 5.46234)
(-0.00268187 0.00138064 4.73064)
(-0.00166563 0.000614152 3.43212)
(-0.000252615 9.42652e-05 1.43351)
(-0.00118472 -6.38089e-05 1.45772)
(-0.00244395 -0.000125644 3.47415)
(-0.00207981 -0.000926766 4.87577)
(-0.00141013 -0.00161023 5.71022)
(-0.000872448 -0.00087249 6.06177)
(-0.00080077 0.000800753 6.08476)
(-0.000994026 0.00134296 5.76135)
(-0.00103264 0.000870831 4.96796)
(-0.000588255 0.000366391 3.59925)
(-8.65851e-05 4.89771e-05 1.49543)
(0.000824299 -8.12684e-05 1.47006)
(0.00200341 -0.000103548 3.50782)
(0.00182926 -0.000885655 4.90065)
(0.00125423 -0.00151706 5.72863)
(0.000800763 -0.000800793 6.08476)
(0.000734428 0.000734437 6.10614)
(0.000886198 0.00126272 5.77594)
(0.000888974 0.000860656 4.97885)
(0.000485589 0.00038496 3.60387)
(7.23264e-05 4.97785e-05 1.4945)
(0.00136175 -2.88989e-05 1.44271)
(0.00407718 -0.000420474 3.42792)
(0.00368004 -0.00147052 4.7329)
(0.00207389 -0.00207392 5.46234)
(0.00134299 -0.00099398 5.76135)
(0.00126271 0.000886214 5.77594)
(0.00158116 0.00158118 5.47432)
(0.00169504 0.00117861 4.72855)
(0.000933896 0.000578723 3.42523)
(0.00015755 7.907e-05 1.42557)
(0.000969314 -0.000171221 1.3204)
(0.00329911 -0.00120522 3.07939)
(0.00262142 -0.00262146 4.16596)
(0.00138069 -0.0026818 4.73064)
(0.000870824 -0.00103262 4.96796)
(0.000860633 0.000888975 4.97885)
(0.00117861 0.00169504 4.72855)
(0.0013314 0.00133137 4.10424)
(0.000791661 0.000661774 2.99353)
(0.000176562 9.10122e-05 1.26618)
(0.00039227 -0.000236648 1.03045)
(0.00132154 -0.00132157 2.30214)
(0.00106779 -0.0020023 3.04407)
(0.000614152 -0.0016656 3.43212)
(0.000366387 -0.000588289 3.59925)
(0.000384967 0.00048557 3.60387)
(0.00057873 0.000933866 3.42523)
(0.00066178 0.000791646 2.99353)
(0.000429705 0.000429723 2.22133)
(0.000127319 6.15154e-05 0.978374)
(5.1987e-05 -5.19933e-05 0.502892)
(0.000185997 -0.000270336 1.01128)
(0.000164121 -0.000326845 1.28875)
(9.42589e-05 -0.000252727 1.43351)
(4.8993e-05 -8.66316e-05 1.49543)
(4.97726e-05 7.23035e-05 1.4945)
(7.90586e-05 0.000157546 1.42557)
(9.10026e-05 0.000176604 1.26618)
(6.15062e-05 0.000127346 0.978374)
(1.99593e-05 1.99559e-05 0.479397)
(-0.00308425 -0.0298373 1.11185)
(0.00107131 -0.0084797 1.34421)
(-2.99968e-05 -0.00320034 1.43679)
(-8.12666e-05 -0.000824313 1.47006)
(1.40169e-05 0.00054879 1.47894)
(-4.22724e-05 0.000942729 1.4438)
(-0.000192884 0.000692492 1.31119)
(-0.000215605 0.000321216 1.01988)
(-4.6773e-05 4.67274e-05 0.498558)
(-0.0298373 -0.00308425 1.11185)
(-0.00613478 -0.00613478 2.71707)
(-0.000563875 -0.0102994 3.19471)
(-0.000242346 -0.00653735 3.4069)
(-0.000103558 -0.00200346 3.50782)
(-0.000128972 0.00163447 3.535)
(-0.000509763 0.00323574 3.43219)
(-0.00114771 0.00254774 3.06021)
(-0.00107955 0.00107949 2.28269)
(-0.00023445 0.000157487 1.00419)
(-0.0084797 0.00107131 1.34421)
(-0.0102994 -0.000563872 3.19471)
(-0.00471631 -0.00471631 4.30176)
(-0.00149369 -0.00503772 4.7346)
(-0.000885719 -0.00182918 4.90065)
(-0.000883362 0.00159883 4.92192)
(-0.00143467 0.00314159 4.73173)
(-0.00226902 0.00226899 4.14786)
(-0.00160466 0.000980234 3.03049)
(-0.000276352 0.000147093 1.28304)
(-0.00320035 -2.99976e-05 1.43679)
(-0.00653735 -0.000242346 3.4069)
(-0.00503768 -0.00149371 4.7346)
(-0.00244031 -0.00244022 5.45881)
(-0.00151698 -0.00125437 5.72863)
(-0.00142836 0.00111634 5.74562)
(-0.00189846 0.00189847 5.46577)
(-0.00229378 0.00131724 4.72974)
(-0.00135828 0.000611828 3.43014)
(-0.000210653 8.98662e-05 1.43077)
(-0.000824314 -8.1271e-05 1.47006)
(-0.00200344 -0.000103545 3.50782)
(-0.00182926 -0.000885677 4.90065)
(-0.00125433 -0.00151704 5.72862)
(-0.000800771 -0.000800795 6.08475)
(-0.000734376 0.000734447 6.10614)
(-0.000886215 0.00126272 5.77594)
(-0.000888987 0.000860648 4.97885)
(-0.000485594 0.000384963 3.60387)
(-7.2324e-05 4.97768e-05 1.4945)
(0.000548788 1.40512e-05 1.47894)
(0.00163445 -0.000129006 3.535)
(0.00159882 -0.000883386 4.92192)
(0.00111635 -0.00142838 5.74562)
(0.00073444 -0.00073433 6.10614)
(0.00067396 0.000673976 6.12607)
(0.000791226 0.00118756 5.78948)
(0.000765798 0.000846652 4.9881)
(0.000403977 0.000395658 3.60707)
(6.17726e-05 4.96354e-05 1.49337)
(0.000942811 -4.23149e-05 1.4438)
(0.00323568 -0.000509754 3.43219)
(0.00314158 -0.00143468 4.73173)
(0.0018985 -0.0018984 5.46577)
(0.00126271 -0.000886194 5.77594)
(0.00118754 0.000791225 5.78948)
(0.00144115 0.00144114 5.47901)
(0.00146662 0.00110801 4.72823)
(0.000787988 0.000553919 3.42262)
(0.000140444 7.35314e-05 1.42317)
(0.000692344 -0.00019289 1.31119)
(0.00254773 -0.0011477 3.06021)
(0.00226905 -0.00226897 4.14786)
(0.00131724 -0.00229376 4.72974)
(0.000860621 -0.000889016 4.97885)
(0.000846653 0.000765785 4.9881)
(0.00110803 0.0014666 4.72823)
(0.00117995 0.00117994 4.09776)
(0.000687755 0.000598131 2.98716)
(0.000162481 8.09238e-05 1.26303)
(0.000321212 -0.000215602 1.01988)
(0.00107957 -0.00107949 2.28269)