/*--------------------------------*- C++ -*----------------------------------*\
  =========                 |
  \\      /  F ield         | OpenFOAM: The Open Source CFD Toolbox
   \\    /   O peration     | Website:  https://openfoam.org
    \\  /    A nd           | Version:  12
     \\/     M anipulation  |
\*---------------------------------------------------------------------------*/
FoamFile
{
    format      ascii;
    class       surfaceScalarField;
    location    "50";
    object      phi;
}
// * * * * * * * * * * * * * * * * * * * * * * * * * * * * * * * * * * * * * //

dimensions      [0 3 -1 0 0 0 0];

internalField   nonuniform List<scalar> 
27900
(
2.68432e-05
2.68409e-05
6.93939e-05
3.18641e-05
1.00455e-06
0.000117053
1.00666e-06
3.18595e-05
0.000117053
5.39369e-06
5.39245e-06
5.86084e-05
2.49844e-05
-3.31773e-06
0.000133275
2.21067e-05
2.21029e-05
0.000283594
7.46641e-06
1.31455e-06
0.000113666
-3.31589e-06
2.49794e-05
0.000133274
1.3162e-06
7.46473e-06
0.000113665
2.01992e-06
2.03216e-06
5.45582e-05
1.32406e-05
-2.97539e-06
0.000137797
1.92342e-05
1.84807e-06
0.000323499
6.56245e-06
-9.98835e-07
0.000135179
1.85126e-06
1.92299e-05
0.000323498
1.06257e-05
1.06232e-05
0.000264978
3.58353e-06
1.95286e-06
0.000110154
-2.97414e-06
1.32367e-05
0.000137795
-9.97121e-07
6.55958e-06
0.000135177
1.94502e-06
3.603e-06
0.000110153
9.32423e-07
9.21708e-07
5.27023e-05
9.90001e-09
-2.35409e-06
0.000138663
1.02621e-05
-1.06117e-06
0.00033285
3.70998e-06
-1.4839e-06
0.000142133
1.21292e-05
1.21259e-05
0.000450033
1.10139e-05
1.6105e-06
0.000320502
3.57345e-06
4.96449e-07
0.000134698
-1.05814e-06
1.02588e-05
0.000332848
1.61271e-06
1.10109e-05
0.000320503
8.06741e-06
8.07694e-06
0.00025274
2.04773e-06
1.77002e-06
0.000107265
-2.35332e-06
7.90994e-09
0.00013866
-1.48143e-06
3.70591e-06
0.000142132
4.94911e-07
3.5909e-06
0.000134697
1.77519e-06
2.03018e-06
0.000107266
4.62906e-07
4.54236e-07
5.17852e-05
-1.32206e-05
-2.35304e-06
0.000138661
8.08592e-09
-9.02726e-07
0.000334595
-1.48146e-08
-1.44087e-06
0.000143828
7.19577e-06
1.8966e-06
0.000472564
6.38517e-06
-4.76991e-07
0.000336472
2.18634e-06
-3.83886e-08
0.000143565
1.89963e-06
7.19316e-06
0.000472564
6.5806e-06
6.57842e-06
0.000440099
8.97673e-06
2.60443e-06
0.000317494
2.36217e-06
7.53586e-07
0.000133625
-9.00036e-07
6.45916e-09
0.000334592
-4.74693e-07
6.38145e-06
0.000336474
2.59778e-06
8.98406e-06
0.000317496
5.97661e-06
5.96823e-06
0.000244333
1.0528e-06
1.44269e-06
0.000105232
-2.3525e-06
-1.32207e-05
0.000138659
-1.43827e-06
-1.96989e-08
0.000143826
-3.44376e-08
2.19284e-06
0.000143564
7.52865e-07
2.34769e-06
0.000133625
1.44886e-06
1.03889e-06
0.000105233
3.29237e-07
3.3665e-07
5.11198e-05
-2.49688e-05
-2.97298e-06
0.000137799
-1.02464e-05
-9.01463e-07
0.000334595
-3.74457e-06
-1.43658e-06
0.000143827
6.71942e-09
7.89881e-07
0.000476085
4.18923e-09
-5.2134e-07
0.000340056
9.48802e-09
-5.19872e-08
0.000146064
5.17039e-06
5.16794e-06
0.000550924
4.63474e-06
1.19703e-06
0.000472838
5.41477e-06
6.18268e-07
0.000339387
1.55571e-06
2.42515e-07
0.000144124
7.92618e-07
5.3833e-09
0.000476084
1.199e-06
4.63194e-06
0.000472839
6.10686e-06
6.11247e-06
0.000433084
7.07998e-06
2.734e-06
0.000314403
1.33169e-06
7.70194e-07
0.000132575
-8.99029e-07
-1.02463e-05
0.000334592
-5.19171e-07
2.12588e-10
0.000340057
6.14061e-07
5.41622e-06
0.00033939
2.74005e-06
7.07353e-06
0.000314402
4.34404e-06
4.33825e-06
0.00023854
6.791e-07
1.16585e-06
0.000103717
-2.97229e-06
-2.49677e-05
0.000137797
-1.43474e-06
-3.74963e-06
0.000143826
-4.59138e-08
1.47898e-09
0.000146061
2.36462e-07
1.55464e-06
0.000144121
7.70811e-07
1.31941e-06
0.000132574
1.16298e-06
6.91118e-07
0.000103716
2.78507e-07
2.91064e-07
5.05504e-05
-3.18531e-05
-3.31352e-06
0.000133275
-1.92209e-05
-1.05734e-06
0.000332851
-6.59058e-06
-1.49547e-06
0.00014214
-7.18238e-06
7.90927e-07
0.000476085
-6.37138e-06
-5.23545e-07
0.000340057
-2.16959e-06
-5.05867e-08
0.000146063
6.60277e-09
2.19042e-06
0.00056123
8.63235e-09
7.92911e-07
0.000479398
-1.63075e-08
4.22019e-07
0.000345023
2.10989e-08
2.08192e-07
0.000147385
2.1928e-06
5.30049e-09
0.000561229
2.59816e-06
2.59577e-06
0.000548129
4.42057e-06
1.88857e-06
0.000473255
4.48332e-06
9.43014e-07
0.000341276
9.01766e-07
1.95972e-07
0.000144356
7.9345e-07
-7.18237e-06
0.000476084
7.94752e-07
5.37284e-09
0.0004794
1.88411e-06
4.4216e-06
0.000473257
5.40898e-06
5.40262e-06
0.000427745
5.4228e-06
2.5363e-06
0.000311556
8.98955e-07
7.60513e-07
0.000131595
-1.05499e-06
-1.92197e-05
0.000332849
-5.21936e-07
-6.37514e-06
0.000340058
4.18903e-07
-2.16263e-08
0.000345027
9.46642e-07
4.48295e-06
0.000341274
2.53985e-06
5.41931e-06
0.000311554
3.20326e-06
3.20893e-06
0.000234459
5.05067e-07
9.69474e-07
0.000102522
-3.31251e-06
-3.18517e-05
0.000133274
-1.49498e-06
-6.59551e-06
0.00014214
-4.59569e-08
-2.19051e-06
0.000146062
2.00376e-07
3.69651e-08
0.000147381
1.91439e-07
8.98109e-07
0.000144354
7.60638e-07
9.09949e-07
0.000131594
9.61635e-07
5.25551e-07
0.00010252
2.39338e-07
2.41619e-07
5.00694e-05
-2.68351e-05
1.01055e-06
0.000117049
-2.20964e-05
1.85507e-06
0.000323499
-7.49364e-06
-1.00891e-06
0.000135186
-1.21168e-05
1.90019e-06
0.000472566
-1.10095e-05
-4.83391e-07
0.000336476
-3.55354e-06
-3.76238e-08
0.000143567
-5.15666e-06
2.19096e-06
0.00056123
-4.61865e-06
7.893e-07
0.000479401
-5.42739e-06
4.03779e-07
0.000345023
-1.51356e-06
2.09702e-07
0.000147384
6.81548e-09
5.42643e-09
0.000590797
1.28829e-08
1.35287e-06
0.000563257
-2.36133e-08
1.33223e-06
0.000482933
9.03307e-09
6.71373e-07
0.000349027
-4.81827e-08
3.26655e-08
0.000148299
2.19318e-06
-5.15676e-06
0.000561229
1.35514e-06
9.8282e-09
0.000563257
2.5355e-06
2.53624e-06
0.000546826
4.04199e-06
2.11038e-06
0.000473454
3.58471e-06
9.07478e-07
0.0003424
6.44758e-07
2.44606e-07
0.000144367
1.90262e-06
-1.2116e-05
0.000472565
7.90692e-07
-4.62199e-06
0.000479402
1.32824e-06
-2.83036e-08
0.000482936
2.11623e-06
4.0406e-06
0.000473453
4.62766e-06
4.62478e-06
0.000423571
4.13476e-06
2.30618e-06
0.000309081
6.63395e-07
7.3826e-07
0.0001307
1.85729e-06
-2.20952e-05
0.000323498
-4.8257e-07
-1.1012e-05
0.000336475
3.99425e-07
-5.43944e-06
0.000345026
6.74094e-07
1.46699e-08
0.000349025
9.08305e-07
3.58473e-06
0.000342396
2.30239e-06
4.13947e-06
0.00030908
2.44888e-06
2.4577e-06
0.000231485
3.94645e-07
8.08957e-07
0.000101558
1.01173e-06
-2.68341e-05
0.000117048
-1.00905e-06
-7.49634e-06
0.000135185
-3.90238e-08
-3.57959e-06
0.000143568
2.04482e-07
-1.4839e-06
0.00014738
2.58947e-08
-4.02865e-08
0.000148296
2.46812e-07
6.48177e-07
0.000144367
7.36856e-07
6.83058e-07
0.000130699
8.05524e-07
3.98886e-07
0.000101557
2.02689e-07
1.9552e-07
4.96706e-05
2.68495e-05
6.93925e-05
-9.9785e-07
2.21144e-05
0.00028359
-5.42992e-06
1.31326e-06
0.000113671
-1.84014e-06
1.21322e-05
0.000450035
-1.0639e-05
1.608e-06
0.000320511
-3.52937e-06
4.67823e-07
0.000134701
-1.88617e-06
5.16994e-06
0.000550926
-6.56961e-06
1.1922e-06
0.000472842
-8.96368e-06
6.02025e-07
0.000339382
-2.34979e-06
2.7964e-07
0.00014412
-2.1781e-06
5.44914e-09
0.000590796
-2.57827e-06
1.35213e-06
0.00056326
-4.45411e-06
1.30194e-06
0.000482934
-4.48407e-06
6.91833e-07
0.000349028
-9.85631e-07
1.88374e-08
0.0001483
6.8386e-09
-2.17834e-06
0.000590796
1.48003e-08
1.17233e-08
0.000593481
-3.05435e-08
1.5075e-06
0.000565644
7.5583e-09
1.51067e-06
0.000486129
1.2975e-08
4.76698e-07
0.000352152
-1.11221e-09
4.06764e-08
0.000148906
5.17207e-06
-1.88559e-06
0.000550926
1.35418e-06
-2.58154e-06
0.000563259
1.50689e-06
-3.48207e-08
0.000565645
2.41356e-06
2.412e-06
0.000546231
3.54963e-06
2.00234e-06
0.000473439
2.82029e-06
9.4853e-07
0.000343012
4.99487e-07
2.99076e-07
0.000144234
1.21348e-05
-1.83923e-06
0.000450034
1.1931e-06
-6.57185e-06
0.00047284
1.29725e-06
-4.46433e-06
0.000482936
1.51635e-06
1.2206e-08
0.000486126
2.00401e-06
3.54935e-06
0.000473437
3.93674e-06
3.94089e-06
0.000420301
3.21017e-06
2.07737e-06
0.000306982
4.90517e-07
7.03611e-07
0.000129901
2.21168e-05
-9.96876e-07
0.000283589
1.6083e-06
-1.06397e-05
0.000320509
5.94693e-07
-8.9771e-06
0.000339382
6.96641e-07
-4.47207e-06
0.000349025
4.76368e-07
1.68998e-08
0.000352148
9.45724e-07
2.82163e-06
0.000343012
2.07209e-06
3.2165e-06
0.000306984
1.92588e-06
1.92876e-06
0.000229246
3.20432e-07
6.66903e-07
0.000100772
2.68509e-05
6.93923e-05
1.31324e-06
-5.42991e-06
0.000113669
4.60272e-07
-3.55077e-06
0.000134701
2.81464e-07
-2.31597e-06
0.000144119
1.35218e-08
-9.67274e-07
0.000148297
4.35911e-08
-7.27361e-09
0.000148906
3.03252e-07
5.0883e-07
0.000144235
7.0236e-07
4.94436e-07
0.000129902
6.69663e-07
3.09275e-07
0.000100773
1.72027e-07
1.64264e-07
4.93343e-05
3.18743e-05
0.000117055
5.34991e-06
5.86122e-05
3.32492e-06
1.92427e-05
0.000323499
-1.3491e-06
1.0633e-05
0.000264978
-1.96536e-06
1.957e-06
0.000110156
1.07275e-06
7.19751e-06
0.000472564
-1.60799e-06
6.57589e-06
0.000440105
-8.05293e-06
2.58289e-06
0.000317493
-2.07241e-06
8.00208e-07
0.000133619
-7.77546e-07
5.89181e-09
0.00056123
-1.18417e-06
2.59374e-06
0.000548132
-6.12413e-06
1.86412e-06
0.00047325
-7.1072e-06
1.01429e-06
0.000341265
-1.40719e-06
1.83944e-07
0.000144356
-2.17794e-06
-2.17834e-06
0.000590794
-1.33017e-06
1.31587e-08
0.000593482
-2.58947e-06
1.47279e-06
0.000565644
-4.03401e-06
1.53917e-06
0.000486129
-3.56285e-06
4.62185e-07
0.000352158
-6.32982e-07
2.48896e-08
0.000148908
7.19007e-09
-7.77303e-07
0.00056123
1.62341e-08
-1.33347e-06
0.000593481
-3.78701e-08
-4.19352e-08
0.00059657
1.16158e-08
1.58e-06
0.000567981
2.83926e-08
1.2971e-06
0.000488831
-1.73352e-08
4.74881e-07
0.000354557
2.92875e-08
9.63051e-08
0.000149282
7.19967e-06
1.07318e-06
0.000472565
2.59572e-06
-1.18599e-06
0.000548129
1.47198e-06
-2.59831e-06
0.000565644
1.58161e-06
1.63734e-08
0.00056798
2.14726e-06
2.14736e-06
0.000545947
3.05041e-06
1.92793e-06
0.000473345
2.24681e-06
9.82527e-07
0.000343295
3.66598e-07
3.40742e-07
0.000144018
1.92457e-05
3.32557e-06
0.000323499
6.57707e-06
-1.60787e-06
0.000440101
1.85816e-06
-6.13451e-06
0.000473249
1.54597e-06
-4.02364e-06
0.000486126
1.29829e-06
3.12947e-08
0.000488828
1.92367e-06
3.0519e-06
0.000473345
3.35594e-06
3.36081e-06
0.000417732
2.53731e-06
1.8574e-06
0.000305218
3.68735e-07
6.50895e-07
0.000129201
3.18771e-05
0.000117054
1.06339e-05
-1.34818e-06
0.000264977
2.57306e-06
-8.06277e-06
0.000317492
1.023e-06
-7.0947e-06
0.000341261
4.63153e-07
-3.55501e-06
0.000352153
4.72525e-07
-1.90125e-08
0.000354556
9.80414e-07
2.24873e-06
0.000343298
1.85554e-06
2.53943e-06
0.00030522
1.54207e-06
1.53827e-06
0.0002275
2.75141e-07
5.47439e-07
0.000100121
5.35037e-06
5.8612e-05
1.94641e-06
-1.97764e-06
0.000110156
8.08266e-07
-2.04701e-06
0.000133619
1.84105e-07
-1.38473e-06
0.000144354
2.68317e-08
-6.4688e-07
0.000148908
1.03137e-07
2.43591e-08
0.000149284
3.42036e-07
3.67874e-07
0.000144019
6.50869e-07
3.576e-07
0.000129202
5.52188e-07
2.62573e-07
0.000100123
1.47529e-07
1.44393e-07
4.90425e-05
2.49964e-05
0.00013328
7.38543e-06
0.00011367
2.09322e-06
5.45558e-05
2.98353e-06
1.02683e-05
0.000332856
1.00022e-06
1.10105e-05
0.000320513
-1.90921e-06
8.06321e-06
0.000252737
-9.56887e-07
1.77858e-06
0.000107258
9.17608e-07
7.03573e-09
0.000476084
4.89916e-07
4.63081e-06
0.000472836
-2.60105e-06
6.08599e-06
0.000433081
-6.00598e-06
2.79289e-06
0.000314394
-1.11395e-06
7.47715e-07
0.000132575
-7.77505e-07
-5.1571e-06
0.000561229
-7.73544e-07
1.1167e-08
0.000563258
-1.93257e-06
2.51625e-06
0.00054682
-5.41509e-06
2.20186e-06
0.000473445
-5.40657e-06
8.89983e-07
0.0003424
-8.69033e-07
2.21795e-07
0.00014437
-5.15667e-06
-7.77495e-07
0.000561229
-1.32636e-06
-1.32991e-06
0.000593482
-1.59844e-06
-5.55857e-08
0.000596566
-2.37486e-06
1.59078e-06
0.000567983
-3.51004e-06
1.29612e-06
0.000488835
-2.84712e-06
4.48138e-07
0.000354565
-4.37764e-07
9.28235e-08
0.000149284
8.34667e-09
9.17517e-07
0.000476085
1.41973e-08
-7.75426e-07
0.000563254
-5.15264e-08
-1.607e-06
0.000596565
4.26188e-08
4.75546e-08
0.000599646
1.36938e-08
1.38305e-06
0.000570033
-5.0049e-09
1.22495e-06
0.000491135
-1.62808e-08
5.22296e-07
0.000356397
7.36418e-09
1.4887e-07
0.000149494
1.02708e-05
2.98356e-06
0.000332857
4.63312e-06
4.90621e-07
0.000472832
2.51487e-06
-1.94121e-06
0.000546817
1.59284e-06
-2.3647e-06
0.000567982
1.38278e-06
1.62916e-08
0.000570032
1.92872e-06
1.93051e-06
0.000545937
2.60967e-06
1.8382e-06
0.000473234
1.81663e-06
9.97367e-07
0.00034336
2.63847e-07
3.59542e-07
0.000143762
2.49995e-05
0.00013328
1.10126e-05
1.00144e-06
0.00032051
6.0787e-06
-2.60644e-06
0.000433077
2.2103e-06
-5.40597e-06
0.000473443
1.29823e-06
-3.50406e-06
0.000488832
1.22067e-06
-6.71152e-09
0.000491135
1.8345e-06
2.61133e-06
0.000473236
2.87353e-06
2.87499e-06
0.000415696
2.02765e-06
1.65128e-06
0.000303731
2.94604e-07
5.90602e-07
0.00012859
7.38607e-06
0.00011367
8.05217e-06
-1.91584e-06
0.000252736
2.8043e-06
-5.99868e-06
0.000314392
8.94349e-07
-5.3975e-06
0.000342395
4.45056e-07
-2.85178e-06
0.000354564
5.2169e-07
-1.87087e-08
0.0003564
9.97261e-07
1.8178e-06
0.000343363
1.65307e-06
2.02495e-06
0.000303731
1.24954e-06
1.24427e-06
0.000226105
2.4322e-07
4.55722e-07
9.95701e-05
2.07978e-06
5.45566e-05
1.78939e-06
-9.44377e-07
0.000107259
7.53729e-07
-1.09513e-06
0.000132575
2.21423e-07
-8.85189e-07
0.00014437
9.85674e-08
-4.5561e-07
0.000149286
1.51364e-07
4.62874e-09
0.000149496
3.57843e-07
2.57095e-07
0.000143763
5.91371e-07
2.82389e-07
0.000128591
4.58718e-07
2.37788e-07
9.95708e-05
1.27924e-07
1.29382e-07
4.8785e-05
1.32503e-05
0.000137807
6.47931e-06
0.000135187
3.70818e-06
0.000110147
8.98129e-07
5.26994e-05
2.36363e-06
1.03599e-08
0.000334604
1.50109e-06
6.37625e-06
0.00033648
-4.65354e-07
8.94261e-06
0.000317499
-1.80485e-06
5.97898e-06
0.00024433
-5.00813e-07
1.40747e-06
0.000105235
9.17966e-07
-7.18365e-06
0.000476084
5.4334e-07
7.96013e-09
0.000479391
-6.61891e-07
4.39948e-06
0.00047325
-2.75493e-06
5.47337e-06
0.000427741
-4.33154e-06
2.50451e-06
0.00031156
-6.36026e-07
7.41461e-07
0.000131602
-1.88726e-06
-1.8873e-06
0.000550927
-7.68502e-07
-2.57582e-06
0.000563259
-1.41973e-06
-4.29568e-08
0.000565634
-2.06451e-06
2.48288e-06
0.000546232
-4.61306e-06
2.00331e-06
0.000473437
-4.14455e-06
9.00327e-07
0.000343019
-6.03354e-07
3.00621e-07
0.000144237
-7.18319e-06
9.17578e-07
0.000476085
-2.5721e-06
-7.70705e-07
0.000563257
-1.59041e-06
-1.59923e-06
0.00059656
-1.49805e-06
5.04542e-08
0.000599652
-2.11675e-06
1.38022e-06
0.000570035
-3.06878e-06
1.20284e-06
0.000491143
-2.26935e-06
5.11e-07
0.000356403
-3.55654e-07
1.53902e-07
0.000149495
1.19005e-08
2.36312e-06
0.000334606
1.13274e-08
5.44171e-07
0.000479386
-3.87437e-08
-1.42764e-06
0.00056563
4.55133e-08
-1.48758e-06
0.000599652
2.17521e-08
2.42927e-08
0.000602372
-1.81855e-08
1.25936e-06
0.000571943
-1.76517e-08
1.18675e-06
0.000493097
1.92916e-09
5.71666e-07
0.000357791
-1.56811e-08
1.80093e-07
0.000149592
1.3253e-05
0.000137807
6.37955e-06
1.50246e-06
0.000336477
4.39805e-06
-6.63065e-07
0.000473244
2.48558e-06
-2.05647e-06
0.000546233
1.38034e-06
-2.11197e-06
0.000570034
1.25744e-06
-2.01619e-08
0.000571942
1.74332e-06
1.74467e-06
0.000546118
2.24221e-06
1.73858e-06
0.000473125
1.47524e-06
9.90408e-07
0.00034328
2.02361e-07
3.62799e-07
0.000143491
6.48111e-06
0.000135187
8.93577e-06
-4.63405e-07
0.000317495
5.48255e-06
-2.75346e-06
0.00042774
2.00722e-06
-4.60719e-06
0.000473435
1.19839e-06
-3.07328e-06
0.000491142
1.18356e-06
-1.98182e-08
0.000493099
1.73833e-06
2.24298e-06
0.000473126
2.46843e-06
2.46653e-06
0.000414065
1.62822e-06
1.46444e-06
0.000302477
2.4739e-07
5.30892e-07
0.000128055
3.6893e-06
0.000110148
5.99154e-06
-1.80187e-06
0.000244328
2.51195e-06
-4.3238e-06
0.000311558
8.96098e-07
-4.14939e-06
0.000343017
5.0933e-07
-2.27618e-06
0.000356405
5.72296e-07
1.8068e-09
0.000357794
9.91492e-07
1.47448e-06
0.000343281
1.46706e-06
1.62464e-06
0.000302477
1.03028e-06
1.02753e-06
0.000224962
2.17255e-07
3.86747e-07
9.90935e-05
9.12192e-07
5.26985e-05
1.41654e-06
-4.8981e-07
0.000105235
7.38913e-07
-6.48682e-07
0.0001316
3.01649e-07
-6.2672e-07
0.000144237
1.55923e-07
-3.6213e-07
0.000149496
1.77512e-07
-1.65478e-08
0.000149592
3.6032e-07
1.95975e-07
0.00014349
5.31677e-07
2.42337e-07
0.000128056
3.87156e-07
2.19079e-07
9.90934e-05
1.10559e-07
1.1445e-07
4.85602e-05
1.43896e-08
0.000138677
3.64748e-06
0.00014214
3.73765e-06
0.000134691
1.97126e-06
0.000107268
4.06317e-07
5.17914e-05
2.36391e-06
-1.02497e-05
0.000334607
1.46831e-06
6.80785e-11
0.000340057
-1.83963e-08
5.38284e-06
0.000339393
-7.93017e-07
7.11739e-06
0.0003144
-1.45402e-06
4.31095e-06
0.000238547
-2.99149e-07
1.17423e-06
0.000103724
1.07247e-06
-1.21196e-05
0.000472565
5.51583e-07
-4.61832e-06
0.000479391
-5.02921e-07
-5.23804e-08
0.000482921
-8.99259e-07
4.0994e-06
0.000473463
-2.52996e-06
4.59019e-06
0.000423573
-3.19678e-06
2.26369e-06
0.00030909
-4.46611e-07
7.42365e-07
0.000130705
-1.21195e-05
1.07209e-06
0.000472566
-1.17337e-06
-1.17623e-06
0.000548129
-1.39408e-06
-2.61613e-06
0.000565632
-1.42503e-06
5.62992e-08
0.000567992
-1.96939e-06
2.14587e-06
0.000545947
-3.96533e-06
1.88165e-06
0.00047335
-3.21221e-06
9.66901e-07
0.000343299
-4.93165e-07
3.57995e-07
0.000144018
-1.0249e-05
2.36315e-06
0.000334608
-4.61455e-06
5.51722e-07
0.000479387
-2.60657e-06
-1.40221e-06
0.00056563
-1.50462e-06
-1.49351e-06
0.000599659
-1.33833e-06
2.37736e-08
0.000602375
-1.97091e-06
1.24257e-06
0.000571944
-2.64066e-06
1.17198e-06
0.000493103
-1.80886e-06
5.7667e-07
0.000357793
-2.99242e-07
1.8542e-07
0.000149592
1.62344e-08
0.000138677
4.01862e-09
1.46943e-06
0.000340055
-4.71439e-08
-5.02243e-07
0.000482915
5.15742e-08
-1.41731e-06
0.000567994
2.12589e-08
-1.33375e-06
0.000602375
-2.38957e-08
-2.59942e-08
0.000604935
-2.33399e-08
1.17241e-06
0.00057372
-2.40283e-09
1.15808e-06
0.000494755
1.14148e-08
6.03827e-07
0.000358829
-1.52857e-08
1.9732e-07
0.000149611
3.65108e-06
0.00014214
5.38215e-06
-1.00934e-08
0.000339389
4.10211e-06
-9.02628e-07
0.000473464
2.14693e-06
-1.96551e-06
0.000545948
1.24062e-06
-1.97598e-06
0.000571944
1.17119e-06
-2.56442e-08
0.00057372
1.58912e-06
1.58922e-06
0.000546415
1.92808e-06
1.63184e-06
0.000473023
1.19134e-06
9.64643e-07
0.000343114
1.66442e-07
3.5537e-07
0.000143216
3.72327e-06
0.000134692
7.12529e-06
-7.99154e-07
0.000314398
4.59581e-06
-2.52714e-06
0.000423573
1.87711e-06
-3.96895e-06
0.000473348
1.16822e-06
-2.64641e-06
0.000493105
1.15825e-06
-2.4649e-09
0.000494758
1.63402e-06
1.92745e-06
0.000473024
2.1234e-06
2.12108e-06
0.000412753
1.32108e-06
1.3016e-06
0.000301415
2.13944e-07
4.7581e-07
0.000127582
1.9906e-06
0.000107265
4.31941e-06
-1.44715e-06
0.000238545
2.25908e-06
-3.19909e-06
0.000309088
9.62297e-07
-3.22063e-06
0.000343299
5.76747e-07
-1.81054e-06
0.000357796
6.04495e-07
1.22258e-08
0.00035883
9.65393e-07
1.19032e-06
0.000343113
1.30304e-06
1.31946e-06
0.000301414
8.67567e-07
8.67292e-07
0.000224
1.92976e-07
3.31014e-07
9.86804e-05
4.17503e-07
5.17906e-05
1.17012e-06
-3.0578e-07
0.000103723
7.37997e-07
-4.67119e-07
0.000130704
3.57681e-07
-5.0115e-07
0.000144019
1.83064e-07
-2.94659e-07
0.000149592
1.93238e-07
-1.36353e-08
0.00014961
3.53817e-07
1.64646e-07
0.000143215
4.76348e-07
2.15823e-07
0.000127582
3.29265e-07
1.99033e-07
9.86798e-05
9.91865e-08
1.02698e-07
4.83583e-05
-1.32248e-05
0.00013868
-4.43849e-08
0.000143837
2.3127e-06
0.000143546
2.24329e-06
0.000133627
9.7774e-07
0.000105243
3.72195e-07
5.11203e-05
2.98396e-06
-1.92295e-05
0.000332861
1.47677e-06
-6.37303e-06
0.000340056
-5.98114e-08
-3.5907e-08
0.000345028
-2.15633e-07
4.53834e-06
0.000341293
-7.6991e-07
5.39743e-06
0.000311556
-1.14616e-06
3.20588e-06
0.000234465
-2.40565e-07
9.95617e-07
0.000102525
-1.84394e-06
-1.84411e-06
0.000450038
5.08861e-07
-6.56639e-06
0.000472831
-4.92641e-07
-4.48645e-06
0.00048292
-5.90928e-07
4.93898e-08
0.000486143
-8.66872e-07
3.50918e-06
0.000473446
-2.32276e-06
3.88728e-06
0.000420305
-2.43572e-06
2.06945e-06
0.00030699
-4.00671e-07
7.13401e-07
0.000129901
-1.92292e-05
2.98333e-06
0.000332861
-6.56318e-06
5.07898e-07
0.000472829
-1.94317e-06
-1.95311e-06
0.000546805
-1.42892e-06
-2.38116e-06
0.000567999
-1.24925e-06
1.88372e-08
0.000570036
-1.97423e-06
1.89351e-06
0.000545935
-3.37762e-06
1.81305e-06
0.000473239
-2.52374e-06
1.01551e-06
0.000343358
-4.15781e-07
3.74119e-07
0.000143759
-1.32237e-05
0.00013868
-6.369e-06
1.47725e-06
0.000340054
-4.47579e-06
-4.93242e-07
0.000482916
-2.39269e-06
-1.42051e-06
0.000568001
-1.33633e-06
-1.33138e-06
0.000602377
-1.31368e-06
-3.12766e-08
0.000604934
-1.79276e-06
1.16047e-06
0.000573721
-2.2398e-06
1.15883e-06
0.000494759
-1.45519e-06
6.14533e-07
0.000358828
-2.34135e-07
1.99053e-07
0.00014961
-3.92916e-08
0.000143837
-2.9927e-08
-4.90448e-08
0.000345024
4.42957e-08
-5.96166e-07
0.000486146
1.63161e-08
-1.24617e-06
0.000570039
-2.91305e-08
-1.31908e-06
0.000604934
-2.85775e-08
-3.09552e-08
0.000607333
-9.5785e-10
1.109e-06
0.000575358
1.00283e-08
1.12423e-06
0.000496152
4.4995e-09
6.15802e-07
0.000359596
-2.26532e-09
2.0555e-07
0.000149574
2.30909e-06
0.000143546
4.53984e-06
-2.28515e-07
0.000341293
3.51073e-06
-8.68521e-07
0.000473449
1.89166e-06
-1.97815e-06
0.000545934
1.15904e-06
-1.79814e-06
0.000573721
1.10913e-06
-1.10269e-09
0.000575359
1.44831e-06
1.44728e-06
0.000546786
1.65123e-06
1.5185e-06
0.000472942
9.63357e-07
9.28082e-07
0.000342899
1.41483e-07
3.43247e-07
0.000142944
2.25622e-06
0.000133625
5.40245e-06
-7.71495e-07
0.000311556
3.88307e-06
-2.32258e-06
0.000420304
1.80808e-06
-3.38305e-06
0.000473238
1.15855e-06
-2.24087e-06
0.000494761
1.12644e-06
1.08791e-08
0.000496153
1.5203e-06
1.65052e-06
0.000472942
1.83441e-06
1.83345e-06
0.000411691
1.09099e-06
1.16121e-06
0.000300505
1.85507e-07
4.24248e-07
0.000127166
9.94259e-07
0.000105241
3.20015e-06
-1.14648e-06
0.000234464
2.06235e-06
-2.44293e-06
0.000306989
1.01389e-06
-2.52668e-06
0.000343359
6.15371e-07
-1.45301e-06
0.000358829
6.15681e-07
5.78419e-09
0.000359595
9.27963e-07
9.63288e-07
0.000342897
1.16175e-06
1.09057e-06
0.000300505
7.39721e-07
7.41796e-07
0.000223179
1.75757e-07
2.88925e-07
9.8315e-05
3.64788e-07
5.11203e-05
9.87363e-07
-2.53146e-07
0.000102523
7.10354e-07
-4.07353e-07
0.0001299
3.72729e-07
-4.08436e-07
0.000143759
1.95564e-07
-2.25202e-07
0.000149609
2.02866e-07
5.464e-10
0.000149573
3.43271e-07
1.43273e-07
0.000142944
4.24133e-07
1.91637e-07
0.000127165
2.86648e-07
1.81518e-07
9.83143e-05
8.90922e-08
9.09968e-08
4.81781e-05
-2.49809e-05
0.000137817
-3.7305e-06
0.000143843
5.1159e-08
0.000146038
1.45114e-06
0.000144124
1.25259e-06
0.000132583
7.56541e-07
0.000103712
3.33368e-07
5.05474e-05
3.32346e-06
-2.2105e-05
0.0003235
1.53469e-06
-1.10096e-05
0.000336471
-7.15275e-08
-5.43299e-06
0.000345028
-1.19301e-07
4.35215e-08
0.000349057
-1.53807e-07
3.56852e-06
0.000342414
-7.66079e-07
4.12248e-06
0.00030908
-9.34296e-07
2.47391e-06
0.000231489
-2.46984e-07
8.18184e-07
0.000101555
-2.21048e-05
3.32306e-06
0.000323501
-1.59625e-06
-1.59812e-06
0.000440101
-6.91313e-07
-6.13986e-06
0.000473233
-5.88653e-07
-4.01358e-06
0.000486148
-4.33325e-07
7.84204e-09
0.000488835
-9.89941e-07
3.00067e-06
0.000473344
-2.08356e-06
3.34542e-06
0.000417735
-1.91565e-06
1.8761e-06
0.000305221
-3.65909e-07
6.52319e-07
0.000129197
-2.49802e-05
0.000137817
-1.10062e-05
1.53446e-06
0.00033647
-6.12809e-06
-6.95238e-07
0.000473231
-2.1104e-06
-2.09988e-06
0.000546241
-1.24299e-06
-2.10925e-06
0.000570039
-1.29253e-06
-3.19087e-08
0.000571936
-1.8863e-06
1.72359e-06
0.000546115
-2.85937e-06
1.74876e-06
0.000473126
-2.01633e-06
1.01735e-06
0.000343274
-3.31317e-07
3.68354e-07
0.000143487
-3.72475e-06
0.000143843
-5.42116e-06
-6.26354e-08
0.000345024
-4.02493e-06
-5.91614e-07
0.000486151
-2.11512e-06
-1.23935e-06
0.000570042
-1.30681e-06
-1.31242e-06
0.000604932
-1.23456e-06
-3.52004e-08
0.000607331
-1.59002e-06
1.10892e-06
0.00057536
-1.90399e-06
1.13364e-06
0.000496153
-1.18746e-06
6.23898e-07
0.000359594
-1.69788e-07
2.04159e-07
0.000149573
6.09114e-08
0.000146038
3.75971e-08
-1.35219e-07
0.000349058
4.67291e-09
-4.36819e-07
0.000488841
-2.98663e-08
-1.2965e-06
0.000571936
-3.27788e-08
-1.24001e-06
0.000607331
-2.20098e-09
-2.36869e-09
0.000609555
1.62422e-08
1.04702e-06
0.000576868
5.1433e-09
1.07788e-06
0.000497337
-4.69175e-09
6.14994e-07
0.000360154
7.90129e-09
2.10832e-07
0.000149496
1.44961e-06
0.000144123
3.56929e-06
-1.62052e-07
0.000342416
2.99918e-06
-9.87995e-07
0.000473343
1.72164e-06
-1.89043e-06
0.000546112
1.10887e-06
-1.59043e-06
0.000575359
1.04815e-06
1.71588e-08
0.000576868
1.30879e-06
1.3081e-06
0.00054721
1.41442e-06
1.40694e-06
0.000472884
7.90445e-07
8.87618e-07
0.000342653
1.17912e-07
3.27033e-07
0.000142686
1.2654e-06
0.000132582
4.11869e-06
-7.62793e-07
0.000309079
3.3394e-06
-2.08568e-06
0.000417732
1.74745e-06
-2.86081e-06
0.000473125
1.13581e-06
-1.9019e-06
0.000496153
1.07945e-06
6.23259e-09
0.000497336
1.40714e-06
1.41443e-06
0.000472883
1.59611e-06
1.59567e-06
0.000410821
9.12576e-07
1.03579e-06
0.000299722
1.66517e-07
3.81294e-07
0.000126794
7.46452e-07
0.000103713
2.46475e-06
-9.41113e-07
0.000231488
1.87265e-06
-1.91908e-06
0.000305221
1.01862e-06
-2.01408e-06
0.000343274
6.2434e-07
-1.184e-06
0.000359593
6.14202e-07
-3.27117e-09
0.000360152
8.87573e-07
7.90028e-07
0.000342652
1.03507e-06
9.13942e-07
0.000299721
6.42133e-07
6.44725e-07
0.000222468
1.60098e-07
2.53053e-07
9.79906e-05
3.20453e-07
5.05473e-05
8.13716e-07
-2.50805e-07
0.000101554
6.52185e-07
-3.58583e-07
0.000129197
3.67327e-07
-3.19109e-07
0.000143487
2.01954e-07
-1.62942e-07
0.000149572
2.1061e-07
9.76279e-09
0.000149495
3.27874e-07
1.22024e-07
0.000142685
3.80823e-07
1.72268e-07
0.000126793
2.51299e-07
1.63465e-07
9.79901e-05
8.1058e-08
8.11082e-08
4.80158e-05
-3.18666e-05
0.000133286
-6.53596e-06
0.000142157
-2.21621e-06
0.000146039
-2.34933e-08
0.000147395
8.56218e-07
0.000144367
9.82646e-07
0.00013159
5.99345e-07
0.000102512
2.32911e-07
5.00681e-05
-1.00293e-06
-1.00314e-06
0.000283589
1.02824e-06
-1.06413e-05
0.000320506
-7.29992e-08
-8.95346e-06
0.000339376
-1.01732e-07
-4.471e-06
0.000349061
3.33726e-08
2.29919e-10
0.000352165
-2.72048e-07
2.80366e-06
0.000343011
-7.35474e-07
3.22115e-06
0.000306983
-7.98491e-07
1.94557e-06
0.000229247
-2.36296e-07
6.56678e-07
0.000100767
-3.18661e-05
0.000133286
-1.06389e-05
1.02741e-06
0.000320506
-2.61076e-06
-2.61881e-06
0.000433071
-9.31571e-07
-5.41567e-06
0.000473458
-4.22844e-07
-3.49749e-06
0.000488839
-5.53431e-07
-2.97941e-08
0.000491122
-1.0273e-06
2.59777e-06
0.000473229
-1.84143e-06
2.89577e-06
0.000415698
-1.54624e-06
1.67092e-06
0.00030373
-3.08126e-07
5.85905e-07
0.000128587
-6.53073e-06
0.000142157
-8.94071e-06
-7.04895e-08
0.000339374
-5.42754e-06
-9.30001e-07
0.000473459
-1.96806e-06
-1.96228e-06
0.000545949
-1.27937e-06
-1.96107e-06
0.000571937
-1.258e-06
-3.13988e-08
0.00057371
-1.73487e-06
1.59491e-06
0.000546413
-2.4393e-06
1.65731e-06
0.000473021
-1.6354e-06
9.824e-07
0.000343106
-2.50599e-07
3.54156e-07
0.000143214
-2.19613e-06
0.000146039
-4.48378e-06
-1.14687e-07
0.000349062
-3.50463e-06
-4.24978e-07
0.000488844
-1.95567e-06
-1.28349e-06
0.000571936
-1.23082e-06
-1.23663e-06
0.000607327
-1.11265e-06
-3.75309e-09
0.000609554
-1.41385e-06
1.0546e-06
0.000576869
-1.64004e-06
1.08713e-06
0.000497336
-9.76616e-07
6.17498e-07
0.000360153
-1.23188e-07
2.07665e-07
0.000149496
-4.03792e-08
0.000147391
-4.13417e-09
2.19872e-08
0.00035217
-2.79662e-08
-5.50741e-07
0.000491122
-2.90349e-08
-1.26142e-06
0.000573707
-3.57038e-09
-1.11289e-06
0.000609553
1.81557e-08
1.91424e-08
0.000611613
1.25344e-08
9.74705e-07
0.000578269
-4.50957e-09
1.02593e-06
0.000498346
-3.78297e-09
6.10394e-07
0.000360547
7.00766e-09
2.13174e-07
0.000149394
8.58936e-07
0.000144366
2.8024e-06
-2.66039e-07
0.000343011
2.59569e-06
-1.02481e-06
0.000473225
1.59433e-06
-1.7349e-06
0.00054641
1.05572e-06
-1.4113e-06
0.000576868
9.75353e-07
1.36702e-08
0.000578269
1.17843e-06
1.17868e-06
0.000547669
1.21954e-06
1.30328e-06
0.000472844
6.54302e-07
8.42755e-07
0.000342397
1.01697e-07
3.12723e-07
0.000142438
9.75199e-07
0.00013159
3.2153e-06
-7.34099e-07
0.000306981
2.89324e-06
-1.84253e-06
0.000415695
1.65936e-06
-2.43769e-06
0.000473019
1.08898e-06
-1.63735e-06
0.000497335
1.02586e-06
-3.53004e-09
0.000498345
1.30311e-06
1.21912e-06
0.000472843
1.39303e-06
1.39369e-06
0.000410105
7.78164e-07
9.27458e-07
0.00029904
1.50491e-07
3.41892e-07
0.000126462
5.79454e-07
0.000102514
1.9416e-06
-8.02417e-07
0.000229246
1.67234e-06
-1.54472e-06
0.00030373
9.8439e-07
-1.63123e-06
0.000343105
6.17222e-07
-9.7376e-07
0.000360151
6.10133e-07
-3.8935e-09
0.000360546
8.42467e-07
6.54791e-07
0.000342396
9.2629e-07
7.79989e-07
0.00029904
5.62966e-07
5.64887e-07
0.000221844
1.47583e-07
2.23328e-07
9.77006e-05
2.28869e-07
5.00681e-05
6.58297e-07
-2.3127e-07
0.000100768
5.87809e-07
-2.97022e-07
0.000128587
3.53958e-07
-2.4225e-07
0.000143213
2.07642e-07
-1.2136e-07
0.000149495
2.14533e-07
8.34379e-09
0.000149394
3.13699e-07
1.05091e-07
0.000142438
3.41308e-07
1.53896e-07
0.000126461
2.22609e-07
1.48004e-07
9.77004e-05
7.39852e-08
7.27372e-08
4.7869e-05
-2.68433e-05
0.000117051
-7.42391e-06
0.000135202
-3.67805e-06
0.000143548
-1.48556e-06
0.0001474
-4.13968e-08
0.000148328
7.09441e-07
0.000144367
7.63102e-07
0.00013069
3.89605e-07
0.000101557
1.59426e-07
4.96717e-05
-2.68431e-05
0.000117051
-1.33606e-06
-1.33722e-06
0.00026498
-4.92584e-07
-8.04661e-06
0.000317489
-2.11787e-07
-7.103e-06
0.000341288
4.97291e-08
-3.57359e-06
0.000352168
-1.02703e-07
-2.71613e-08
0.00035454
-3.34469e-07
2.2486e-06
0.000343287
-6.89839e-07
2.55599e-06
0.000305222
-6.86951e-07
1.54254e-06
0.000227499
-1.94375e-07
5.33867e-07
0.000100118
-7.4203e-06
0.000135203
-8.03593e-06
-4.96676e-07
0.000317489
-2.76489e-06
-2.75826e-06
0.000427746
-8.61052e-07
-4.58408e-06
0.00047344
-5.39571e-07
-3.05999e-06
0.000491125
-5.99389e-07
-2.0746e-08
0.000493077
-9.92429e-07
2.26085e-06
0.000473122
-1.63284e-06
2.49446e-06
0.000414067
-1.2662e-06
1.47112e-06
0.000302474
-2.43985e-07
5.26008e-07
0.000128054
-3.65523e-06
0.000143548
-7.11654e-06
-2.16445e-07
0.000341288
-4.59232e-06
-8.59429e-07
0.000473443
-1.94705e-06
-1.95155e-06