/*--------------------------------*- C++ -*----------------------------------*\
  =========                 |
  \\      /  F ield         | OpenFOAM: The Open Source CFD Toolbox
   \\    /   O peration     | Website:  https://openfoam.org
    \\  /    A nd           | Version:  12
     \\/     M anipulation  |
\*---------------------------------------------------------------------------*/
FoamFile
{
    format      ascii;
    class       volVectorField;
    location    "50";
    object      U;
}
// * * * * * * * * * * * * * * * * * * * * * * * * * * * * * * * * * * * * * //

dimensions      [0 1 -1 0 0 0 0];

internalField   nonuniform List<vector> 
10000
(
(0.0139128 0.0139116 0.699836)
(0.029837 0.00308363 1.11187)
(0.00308485 0.0298335 1.11187)
(0.00228613 0.00228562 0.609192)
(0.0299849 -0.00214281 1.24594)
(0.0116747 0.0116717 2.89395)
(0.00798848 -0.000132196 1.14893)
(-0.00214169 0.02998 1.24593)
(-0.000131543 0.00798696 1.14893)
(0.000512601 0.000519657 0.563885)
(0.0199017 -0.00261799 1.27905)
(0.020841 -0.000112454 3.1998)
(0.00850759 -0.00103879 1.34406)
(-0.00010977 0.0208368 3.1998)
(0.00613629 0.00613405 2.71714)
(0.00327456 4.43928e-05 1.12393)
(-0.00261714 0.0198971 1.27904)
(-0.00103812 0.00850514 1.34404)
(3.82158e-05 0.00329117 1.12391)
(0.00012549 0.000118685 0.534475)
(0.00688376 -0.00231081 1.28299)
(0.0156929 -0.00192374 3.26133)
(0.00565803 -0.000989496 1.4023)
(0.00719487 0.00719168 4.5187)
(0.0132909 -0.000890057 3.21373)
(0.00422983 -3.16571e-05 1.35741)
(-0.00192143 0.0156889 3.26132)
(-0.000887676 0.013288 3.21371)
(0.00487319 0.00488111 2.58159)
(0.0016401 0.000140604 1.08631)
(-0.00231025 0.00688074 1.28298)
(-0.000988435 0.00565442 1.40226)
(-3.39324e-05 0.0042491 1.35741)
(0.000146043 0.0016257 1.08632)
(2.47625e-05 2.02069e-05 0.521142)
(-0.00686344 -0.00231016 1.28298)
(0.00542339 -0.00143688 3.27076)
(0.00196371 -0.000879915 1.4145)
(0.00992093 0.000756743 4.68679)
(0.00992321 -0.00176442 3.3408)
(0.00314458 -3.58197e-05 1.43702)
(0.000759792 0.00991788 4.68679)
(0.00511551 0.00511319 4.43623)
(0.0103203 0.000578252 3.19468)
(0.00261577 8.13544e-05 1.34345)
(-0.00143501 0.00542087 3.27075)
(-0.00176161 0.00991965 3.34076)
(0.000574441 0.0103294 3.19471)
(0.00377394 0.00376825 2.479)
(0.000782934 0.000240315 1.06053)
(-0.00230975 -0.00686441 1.28297)
(-0.000878806 0.00195912 1.41446)
(-3.44348e-05 0.00315728 1.43702)
(8.42401e-05 0.00260026 1.34345)
(0.000244979 0.000770488 1.06055)
(3.69363e-05 4.18154e-05 0.514027)
(-0.0198838 -0.00261618 1.27903)
(-0.00540717 -0.00143563 3.27076)
(-0.00199554 -0.000872239 1.41448)
(0.00394346 3.58003e-05 4.7081)
(0.00341756 -0.00148077 3.36623)
(0.00117001 -1.90938e-05 1.45805)
(0.00375295 0.00375024 5.49413)
(0.00734182 0.000333814 4.7205)
(0.00805191 -0.000246438 3.38609)
(0.00219561 -4.47342e-05 1.44123)
(3.85456e-05 0.00394143 4.7081)
(0.000336124 0.00733919 4.72048)
(0.00510004 0.0051066 4.36418)
(0.00783987 0.00111371 3.16045)
(0.00146372 0.000248094 1.33053)
(-0.00143402 -0.0054079 3.27075)
(-0.001478 0.00341361 3.36617)
(-0.000246676 0.00805716 3.38616)
(0.00111559 0.00783411 3.16045)
(0.00275857 0.00275274 2.40887)
(0.000500471 0.000233136 1.04357)
(-0.00261568 -0.0198831 1.27902)
(-0.000871641 -0.00200055 1.41445)
(-1.63594e-05 0.00116942 1.45805)
(-4.41921e-05 0.00218806 1.4412)
(0.000248955 0.00144883 1.33053)
(0.000229318 0.000510387 1.04356)
(4.72211e-05 5.41943e-05 0.50814)
(-0.0299717 -0.00214004 1.24591)
(-0.0156783 -0.00192041 3.26132)
(-0.00568974 -0.000991829 1.40236)
(-0.00392991 3.6964e-05 4.7081)
(-0.0034075 -0.00148423 3.36624)
(-0.00115241 -9.53337e-06 1.45805)
(0.00264884 0.00166208 5.57049)
(0.0028128 8.58377e-05 4.77001)
(0.00287988 -0.000165233 3.43182)
(0.000869097 -0.000130304 1.47024)
(0.00166464 0.00264693 5.57048)
(0.00282136 0.0028191 5.48509)
(0.00663493 0.00118963 4.73418)
(0.00651207 0.000210469 3.40685)
(0.00132251 0.000206454 1.44275)
(3.9477e-05 -0.00393055 4.7081)
(8.79975e-05 0.00280969 4.76999)
(0.00118478 0.00663893 4.73422)
(0.00470045 0.00469628 4.3019)
(0.00582514 0.0012028 3.12868)
(0.000960766 0.000253269 1.32044)
(-0.00191879 -0.0156776 3.26131)
(-0.00148211 -0.00341145 3.36618)
(-0.000163966 0.00287805 3.4319)
(0.000208942 0.00650963 3.40685)
(0.00120508 0.00581848 3.12865)
(0.00209086 0.00209459 2.36145)
(0.000388119 0.000174176 1.03056)
(-0.00213939 -0.0299703 1.2459)
(-0.000991989 -0.00569478 1.40234)
(-8.04308e-06 -0.0011676 1.45806)
(-0.000130223 0.000876558 1.4702)
(0.000203413 0.00131304 1.44271)
(0.000249842 0.000971482 1.32043)
(0.000167436 0.000405863 1.03054)
(5.31679e-05 5.37071e-05 0.50293)
(-0.0298275 0.00308707 1.11187)
(-0.0208293 -0.000106481 3.1998)
(-0.00853451 -0.00104177 1.3441)
(-0.009908 0.000760455 4.68679)
(-0.0099116 -0.00177264 3.34083)
(-0.0031293 -2.92125e-05 1.43707)
(-0.00263536 0.00166284 5.57048)
(-0.00280043 8.20649e-05 4.77001)
(-0.00289685 -0.000165504 3.43184)
(-0.000825673 -0.000163472 1.47024)
(0.00120947 0.00120758 5.86456)
(0.00212958 0.00155002 5.61546)
(0.00256407 0.000860317 4.81548)
(0.00244554 0.000108191 3.47389)
(0.00050338 0.00022254 1.47897)
(0.00166521 -0.00263604 5.57047)
(0.00155215 0.00212675 5.61545)
(0.00294623 0.00294943 5.47542)
(0.00590428 0.00157258 4.73521)
(0.00516569 0.000292194 3.41971)
(0.000929437 0.000234015 1.44385)
(0.000762876 -0.00990756 4.68679)
(8.37137e-05 -0.0028038 4.76999)
(0.000856189 0.00256233 4.81553)
(0.00157534 0.00590176 4.73521)
(0.00405339 0.0040484 4.25385)
(0.00433141 0.00124442 3.10203)
(0.000697334 9.87672e-05 1.31127)
(-0.000104759 -0.020828 3.1998)
(-0.00177162 -0.00991468 3.34079)
(-0.00016553 -0.00290652 3.43191)
(0.000105392 0.00244842 3.4739)
(0.000290892 0.00516227 3.41966)
(0.00124319 0.00433432 3.10201)
(0.00165793 0.00166594 2.32757)
(0.000320401 0.000177943 1.01995)
(0.00308776 -0.0298262 1.11187)
(-0.00104214 -0.00853827 1.34408)
(-3.2011e-05 -0.0031539 1.43709)
(-0.000161526 -0.000802743 1.47021)
(0.000217865 0.000505268 1.47892)
(0.000230641 0.000936017 1.44384)
(9.52934e-05 0.000718706 1.31125)
(0.000176474 0.000324311 1.01993)
(5.25505e-05 4.80569e-05 0.498553)
(-0.0139086 0.0139164 0.699827)
(-0.0116651 0.0116805 2.89395)
(-0.00801966 -0.000121727 1.14888)
(-0.00718354 0.00719817 4.5187)
(-0.0132971 -0.000894751 3.21373)
(-0.00419185 -5.4977e-05 1.3575)
(-0.00373969 0.00375293 5.49412)
(-0.00732765 0.000326291 4.72052)
(-0.00806012 -0.000240162 3.38615)
(-0.00216981 -8.92947e-05 1.44121)
(-0.00119552 0.00120781 5.86454)
(-0.00211791 0.00154244 5.61547)
(-0.00259431 0.00084295 4.81553)
(-0.00243277 0.000115553 3.47387)
(-0.000591968 0.000222487 1.47896)
(0.00120962 -0.00119631 5.86454)
(0.00111659 0.00111381 5.91426)
(0.001958 0.0018597 5.64738)
(0.00238161 0.00117778 4.84752)
(0.0020053 3.33676e-05 3.5077)
(0.000383531 0.000269164 1.48648)
(0.00375521 -0.00373941 5.49412)
(0.00154423 -0.00212113 5.61546)
(0.00185675 0.00195628 5.64739)
(0.00302834 0.00302624 5.46515)
(0.0050091 0.00139027 4.7346)
(0.00406727 0.000453337 3.4279)
(0.000704202 -3.0978e-05 1.4433)
(0.00720055 -0.00718273 4.51869)
(0.000327319 -0.00733038 4.7205)
(0.000837879 -0.00260266 4.81557)
(0.00118001 0.00238353 4.84751)
(0.00139334 0.00500597 4.73457)
(0.0035139 0.00351522 4.21725)
(0.00329891 0.00125 3.07944)
(0.000519056 6.73461e-05 1.30281)
(0.0116823 -0.011664 2.89395)
(-0.000894491 -0.0132985 3.2137)
(-0.000244243 -0.00807411 3.38617)
(0.000114677 -0.0024245 3.47387)
(3.05897e-05 0.00200708 3.50764)
(0.000453382 0.00406863 3.42788)
(0.00124682 0.00330709 3.07946)
(0.00132508 0.00132852 2.30223)
(0.000272794 0.000205473 1.01129)
(0.0139171 -0.0139081 0.699826)
(-0.000121839 -0.00802089 1.14887)
(-6.19701e-05 -0.00421631 1.35749)
(-8.36069e-05 -0.00213832 1.44121)
(0.000219364 -0.000577522 1.47891)
(0.000265481 0.000381971 1.48646)
(-3.10778e-05 0.000719795 1.44331)
(6.78989e-05 0.000524731 1.3028)
(0.000209185 0.000263234 1.0113)
(4.65519e-05 4.23146e-05 0.494912)
(-0.00307992 0.0298454 1.11186)
(-0.00231113 0.0022626 0.609205)
(0.000120415 0.0208494 3.19979)
(-0.00613029 0.00612453 2.71704)
(-0.00321973 4.35071e-05 1.12403)
(-0.000745927 0.00992341 4.68677)
(-0.00510231 0.00510741 4.43627)
(-0.0103022 0.000567509 3.19485)
(-0.00261943 7.53407e-05 1.34342)
(-0.00165001 0.00264819 5.57047)
(-0.00280264 0.00280872 5.48513)
(-0.00666579 0.00118405 4.73425)
(-0.00653716 0.000246232 3.40668)
(-0.00140071 0.000213106 1.44269)
(-0.00119541 -0.00119629 5.86452)
(-0.00111053 0.00111184 5.91428)
(-0.00202887 0.00181791 5.64742)
(-0.0023385 0.00120238 4.84749)
(-0.00199558 9.13237e-06 3.50773)
(-0.000380401 0.000292721 1.48649)
(0.00264994 -0.00164996 5.57046)
(0.00111449 -0.00111377 5.91427)
(0.0010996 0.00109788 5.95298)
(0.00192054 0.00219264 5.66961)
(0.00205955 0.000737895 4.87571)
(0.00162012 0.000173372 3.53497)
(0.000315426 -8.65334e-05 1.49145)
(0.00992585 -0.000745391 4.68677)
(0.00281024 -0.00280512 5.48513)
(0.0018145 -0.00203633 5.64742)
(0.00219459 0.00192246 5.66961)
(0.00250681 0.00250447 5.45995)
(0.00430004 0.00144869 4.73391)
(0.00323239 0.000586739 3.43221)
(0.000524399 -0.000138118 1.44145)
(0.0208521 0.000121257 3.19979)
(0.0051083 -0.0051033 4.43626)
(0.00117691 -0.00667721 4.73424)
(0.00120601 -0.00233191 4.84749)
(0.000740242 0.00206078 4.87567)
(0.00144782 0.00430077 4.7339)
(0.00307816 0.0030833 4.18867)
(0.00254953 0.00115687 3.06028)
(0.000399027 0.000155922 1.2953)
(0.0298475 -0.00307937 1.11186)
(0.00612495 -0.00613004 2.71703)
(0.000559634 -0.0103144 3.19483)
(0.000250007 -0.00652641 3.40666)
(7.71593e-06 -0.00198798 3.50766)
(0.00017397 0.00161954 3.53495)
(0.000587474 0.00323706 3.43224)
(0.00115478 0.00255447 3.0603)
(0.00107529 0.00107235 2.28273)
(0.000239449 0.000203109 1.0042)
(0.00226284 -0.00231112 0.609201)
(3.47485e-05 -0.00323682 1.12401)
(8.38636e-05 -0.00259019 1.34343)
(0.000214702 -0.00137823 1.44267)
(0.000288498 -0.000390107 1.48647)
(-8.51147e-05 0.00031781 1.49147)
(-0.000135054 0.000528367 1.44146)
(0.000159121 0.00038821 1.29531)
(0.000207414 0.000228478 1.00421)
(3.80459e-05 3.66936e-05 0.491802)
(0.00214719 0.0299963 1.24596)
(8.2878e-05 0.00792463 1.14902)
(-0.000476868 0.000557023 0.5639)
(0.00193423 0.0157005 3.26136)
(0.000897898 0.0132926 3.21373)
(-0.00488476 0.00488202 2.58169)
(-0.00166191 0.000156341 1.08627)
(-2.23883e-05 0.00394453 4.70807)
(-0.000311648 0.00733197 4.72051)
(-0.00511969 0.00508822 4.36427)
(-0.00786696 0.00112418 3.16028)
(-0.00153421 0.000249228 1.33046)
(-0.00164989 -0.00263592 5.57045)
(-0.00152535 0.00211737 5.6155)
(-0.00297604 0.002912 5.47543)
(-0.00591036 0.00166052 4.73506)
(-0.0051372 0.000276618 3.41964)
(-0.000909308 0.000285188 1.44387)
(-0.00263508 -0.00165003 5.57045)
(-0.00110711 -0.00111048 5.91429)
(-0.00123898 0.00103662 5.95297)
(-0.00179443 0.00226118 5.66961)
(-0.00205191 0.000706078 4.87573)
(-0.00165219 0.00015677 3.53507)
(-0.000256716 -6.88788e-05 1.49148)
(0.0039463 -2.22589e-05 4.70807)
(0.00211996 -0.00152789 5.61551)
(0.00103823 -0.0012462 5.95296)
(0.00139528 0.00139729 5.9826)
(0.00150588 0.00152154 5.6903)
(0.00180773 0.000789215 4.90068)
(0.00132341 0.000303046 3.55604)
(0.000229827 -0.000273555 1.49427)
(0.0157033 0.0019345 3.26136)
(0.00733383 -0.000312187 4.72053)
(0.00290773 -0.00298578 5.47537)
(0.00226385 -0.00178818 5.6696)
(0.0015236 0.00150721 5.69029)
(0.00233063 0.0023313 5.45881)
(0.00371783 0.00155559 4.73292)
(0.00258166 0.000593097 3.43374)
(0.000391257 -1.21848e-05 1.43899)
(0.0299993 0.00214755 1.24596)
(0.0132942 0.000898791 3.21373)
(0.00507917 -0.00512794 4.36421)
(0.00166669 -0.0059027 4.73505)
(0.000709603 -0.00204572 4.87568)
(0.000788654 0.00180723 4.90066)
(0.00155265 0.00372119 4.73294)
(0.00264771 0.00265166 4.16601)
(0.00199879 0.00104132 3.04413)
(0.000326736 0.000235339 1.28877)
(0.00792511 8.34243e-05 1.14902)
(0.0048723 -0.00489222 2.58167)
(0.00113191 -0.00785812 3.16026)
(0.000279242 -0.00512639 3.41959)
(0.00015684 -0.00165409 3.53503)
(0.000305586 0.00132309 3.55606)
(0.000593069 0.0025852 3.43378)
(0.00104166 0.00199724 3.04414)
(0.000890703 0.000885749 2.26731)
(0.000212145 0.000163229 0.998259)
(0.000549167 -0.00048358 0.563904)
(0.000165474 -0.00164254 1.08628)
(0.000255461 -0.00151206 1.33046)
(0.000280589 -0.000923501 1.44385)
(-6.86116e-05 -0.00026897 1.49149)
(-0.000269215 0.000229417 1.49429)
(-9.15925e-06 0.000382636 1.439)
(0.000237927 0.000313535 1.28878)
(0.000165139 0.000207331 0.99827)
(3.1027e-05 3.22068e-05 0.489074)
(0.00262318 0.0199132 1.2791)
(0.00102894 0.0084224 1.34417)
(1.65018e-05 0.00337199 1.12386)
(-0.000143126 0.000104939 0.534436)
(0.00144993 0.00542798 3.27081)
(0.00179003 0.00991152 3.34089)
(-0.000594839 0.0102916 3.19489)
(-0.00376613 0.00374329 2.47888)
(-0.00083668 0.000229576 1.06046)
(-2.22143e-05 -0.00393038 4.70806)
(-4.76352e-05 0.00280342 4.77002)
(-0.00122742 0.00661941 4.73415)
(-0.0047576 0.00477645 4.30177)
(-0.00579646 0.00120064 3.12866)
(-0.000925799 0.000290658 1.32049)
(-0.0037402 -0.00374038 5.4941)
(-0.0015197 -0.00211774 5.61551)
(-0.00189396 0.0019027 5.64732)
(-0.00299121 0.00319824 5.46509)
(-0.00495701 0.00134175 4.73452)
(-0.00408417 0.000436585 3.42797)
(-0.000642931 9.71258e-06 1.44335)
(-0.00392953 -2.23485e-05 4.70806)
(-0.0021143 -0.00152254 5.61552)
(-0.00123931 -0.00124668 5.95292)
(-0.00111384 0.00143941 5.98263)
(-0.00153199 0.0015225 5.69031)
(-0.00185589 0.0007454 4.90075)
(-0.00134243 0.000302754 3.55612)
(-0.000216797 -0.000281245 1.49428)
(0.00543 0.00144965 3.27081)
(0.00280634 -4.81638e-05 4.77004)
(0.00190408 -0.00190323 5.64725)
(0.00143763 -0.00110755 5.98262)
(0.000965047 0.000966487 6.01034)
(0.00129885 0.00139112 5.71022)
(0.00160698 0.000988839 4.92199)
(0.00108864 0.000300542 3.57195)
(0.000159563 -0.000146521 1.49569)
(0.0199162 0.00262317 1.27909)
(0.00991436 0.00179128 3.34091)
(0.00661445 -0.00123285 4.73404)
(0.00320209 -0.0029846 5.46508)
(0.00152522 -0.00152648 5.69029)
(0.00139052 0.00129841 5.71021)
(0.00229397 0.0022964 5.45994)
(0.00318237 0.00151801 4.73178)
(0.00206556 0.000560257 3.4335)
(0.00030778 0.000161936 1.4363)
(0.00842367 0.00102963 1.34418)
(0.0102818 -0.00059661 3.19483)
(0.00478425 -0.00475337 4.30175)
(0.00134784 -0.00494892 4.7345)
(0.000744676 -0.00185724 4.90073)
(0.000986953 0.00160658 4.92201)
(0.0015156 0.00318537 4.73181)
(0.00224884 0.002249 4.14793)
(0.00159764 0.000952015 3.03052)
(0.000279735 0.000233693 1.28307)
(0.00335491 1.24802e-05 1.12388)
(0.00375306 -0.00376102 2.47886)
(0.00120726 -0.00578669 3.12863)
(0.000435444 -0.00408662 3.42794)
(0.000304403 -0.00134761 3.55613)
(0.000301391 0.00108949 3.57199)
(0.000559616 0.00206513 3.43352)
(0.000953578 0.00159307 3.03052)
(0.000756231 0.000753253 2.25482)
(0.000188181 0.000112519 0.993168)
(0.000113575 -0.000135487 0.534438)
(0.000237588 -0.000821404 1.06047)
(0.000286071 -0.000939543 1.32048)
(6.57246e-06 -0.000664764 1.44335)
(-0.000277635 -0.000222274 1.4943)
(-0.000143544 0.000155832 1.4957)
(0.000162711 0.000297835 1.4363)
(0.000234181 0.000273473 1.28308)
(0.000111855 0.000189773 0.993171)
(2.61288e-05 2.84333e-05 0.486673)
(0.00231694 0.00689149 1.28305)
(0.000994305 0.00558359 1.40251)
(8.08618e-05 0.00437405 1.35739)
(-0.000181338 0.00158412 1.08628)
(-4.93597e-05 -4.28866e-06 0.521157)
(0.00145027 -0.00540772 3.27081)
(0.00152274 0.00340736 3.36637)
(0.000190454 0.00803556 3.38618)
(-0.00111988 0.00786253 3.16036)
(-0.00275175 0.00274999 2.40892)
(-0.000463235 0.000261539 1.04364)
(-0.000746656 -0.00991019 4.68676)
(-3.60968e-05 -0.00280287 4.77002)
(-0.000902196 0.00253018 4.81533)
(-0.00164944 0.006033 4.73519)
(-0.00401889 0.00399501 4.25384)
(-0.00433448 0.00123451 3.10214)
(-0.000636099 0.000128302 1.31135)
(-0.00991 -0.00074682 4.68676)
(-0.00278784 -0.00279106 5.48519)
(-0.00183569 -0.00203874 5.64732)
(-0.00213498 0.0020681 5.66963)
(-0.00247361 0.00247953 5.45993)
(-0.00430765 0.0013692 4.73396)
(-0.00324672 0.000591273 3.43229)
(-0.000519605 -0.000154798 1.44147)
(-0.00540664 0.00144969 3.2708)
(-0.00279923 -3.71356e-05 4.77005)
(-0.00203092 -0.0018452 5.64726)
(-0.00112745 -0.00112091 5.98264)
(-0.0009452 0.000979787 6.01037)
(-0.00143533 0.00134118 5.71025)
(-0.00163604 0.000976431 4.92207)
(-0.00107374 0.000311615 3.57199)
(-0.000192293 -0.000171106 1.49569)
(0.00689378 0.00231658 1.28304)
(0.00341106 0.00152386 3.3664)
(0.00253206 -0.000906355 4.81522)
(0.00206678 -0.00212852 5.66962)
(0.000978565 -0.00093973 6.01037)
(0.000774864 0.000774443 6.03701)
(0.0012386 0.00153552 5.7287)
(0.00141912 0.00102552 4.93996)
(0.0008887 0.000260221 3.58389)
(0.000122501 8.56822e-05 1.4962)
(0.00558634 0.000995051 1.40252)
(0.00803111 0.000193227 3.3861)
(0.0060375 -0.00164755 4.73517)
(0.00248353 -0.00246708 5.45995)
(0.00134056 -0.00143678 5.71024)
(0.00153349 0.00123797 5.72871)
(0.00217774 0.00217987 5.46243)
(0.00268712 0.00138078 4.7307)
(0.00165912 0.00055899 3.43215)
(0.000254299 0.000232349 1.43354)
(0.00435659 8.27261e-05 1.35739)
(0.00787089 -0.00112116 3.16033)
(0.00400345 -0.00401354 4.25385)
(0.00136811 -0.00430889 4.73394)
(0.000973881 -0.00164024 4.92208)
(0.00102368 0.00141974 4.93999)
(0.00138044 0.00268751 4.73072)
(0.00192844 0.00192626 4.13341)
(0.00130963 0.000887718 3.01905)
(0.00024476 0.000173167 1.27806)
(0.00160106 -0.000177577 1.08626)
(0.00275853 -0.00274538 2.40889)
(0.00123242 -0.00433658 3.10211)
(0.00058969 -0.00325487 3.43228)
(0.000311956 -0.00107598 3.57202)
(0.000259071 0.000888999 3.58391)
(0.000558166 0.00165676 3.43214)
(0.000888983 0.00130612 3.01904)
(0.000652162 0.000651671 2.24443)
(0.000165713 7.41956e-05 0.988749)
(1.93626e-06 -4.39076e-05 0.521148)
(0.000257131 -0.000473196 1.04363)
(0.000121735 -0.000658997 1.31133)
(-0.000153814 -0.000528318 1.44147)
(-0.000168112 -0.000190654 1.4957)
(8.55674e-05 0.000119979 1.49619)
(0.000231019 0.00025002 1.43354)
(0.000171998 0.000246043 1.27806)
(7.20799e-05 0.000170995 0.988744)
(2.50288e-05 2.68989e-05 0.48455)
(0.00231707 -0.00686331 1.28305)
(0.000894062 0.00191609 1.4148)
(-3.42656e-05 0.00329599 1.43684)
(-8.11421e-05 0.00252054 1.34341)
(-0.000273683 0.000718115 1.06066)
(-1.84591e-05 6.53338e-05 0.514071)
(0.00193433 -0.0156846 3.26135)
(0.00153991 -0.00341057 3.36641)
(9.19851e-05 0.00286587 3.43173)
(-0.00025262 0.00658518 3.40691)
(-0.00118577 0.00578128 3.12867)
(-0.00208077 0.00210065 2.36153)
(-0.000336837 0.000196034 1.03064)
(-0.00718675 -0.00718682 4.51868)
(-0.000286558 -0.00731784 4.72054)
(-0.000873249 -0.00262164 4.81533)
(-0.0013323 0.00248172 4.84754)
(-0.0013232 0.00491237 4.73469)
(-0.00351158 0.00345321 4.21732)
(-0.0032987 0.00124856 3.07954)
(-0.000522442 3.69579e-05 1.30283)
(-0.0156841 0.00193381 3.26135)
(-0.00731438 -0.000288464 4.72055)
(-0.00295614 -0.00296682 5.47529)
(-0.00217378 -0.00178895 5.66965)
(-0.00153109 0.00153031 5.69035)
(-0.00236215 0.00221249 5.45883)
(-0.00374032 0.00153941 4.733)
(-0.00257332 0.000620097 3.43374)
(-0.000432679 -6.72412e-05 1.43897)
(-0.00686187 0.00231654 1.28304)
(-0.00340648 0.00154031 3.36643)
(-0.00261275 -0.000878141 4.81523)
(-0.00179578 -0.00216665 5.66965)
(-0.000951752 -0.00094609 6.0104)
(-0.000971028 0.000746147 6.03703)
(-0.0013132 0.00150512 5.72873)
(-0.00139047 0.00104461 4.94001)
(-0.000865356 0.000269665 3.58389)
(-0.00015333 6.52715e-05 1.49619)
(0.00192054 0.000894659 1.41481)
(0.0028686 9.66488e-05 3.43166)
(0.00248043 -0.0013311 4.84753)
(0.00152961 -0.00152497 5.69039)
(0.000746583 -0.000972479 6.03703)
(0.000821806 0.000821075 6.06185)
(0.00118167 0.00158577 5.7457)
(0.00122233 0.000921645 4.95513)
(0.000715754 0.000267957 3.59273)
(0.000105535 0.000213831 1.49606)
(0.0032864 -2.74485e-05 1.43683)
(0.00658907 -0.000258356 3.40689)
(0.00491747 -0.001321 4.73474)
(0.00221181 -0.00236343 5.45883)
(0.00150276 -0.00131713 5.72872)
(0.0015839 0.0011819 5.74571)
(0.00195944 0.00195968 5.46585)
(0.00226279 0.00125246 4.72979)
(0.0013508 0.000588472 3.43016)
(0.00021556 0.000192266 1.4308)
(0.00253619 -8.22085e-05 1.3434)
(0.00579016 -0.00118558 3.12867)
(0.00345215 -0.00351198 4.21731)
(0.00153499 -0.00374593 4.73298)
(0.00104219 -0.00139254 4.94003)
(0.000921072 0.00122271 4.95514)
(0.00125338 0.00226158 4.72978)
(0.00169199 0.00168972 4.12169)
(0.00109781 0.000825295 3.00927)
(0.000214302 0.000104722 1.27363)
(0.000733712 -0.000269937 1.06062)
(0.002097 -0.00208252 2.36152)
(0.00124357 -0.00330691 3.07953)
(0.000618564 -0.00257773 3.43375)
(0.000268635 -0.000864758 3.58391)
(0.000266055 0.000715906 3.59273)
(0.000587818 0.001349 3.43015)
(0.000826116 0.00109609 3.00926)
(0.000561728 0.000563611 2.2356)
(0.000150381 5.78796e-05 0.98488)
(6.04202e-05 -2.29108e-05 0.514066)
(0.000187938 -0.000354081 1.03062)
(3.51322e-05 -0.000530955 1.30282)
(-6.43943e-05 -0.000427151 1.43897)
(6.57228e-05 -0.00014768 1.49618)
(0.000211554 0.00010585 1.49604)
(0.000190234 0.000216887 1.43079)
(0.000102929 0.000220414 1.27362)
(5.58629e-05 0.000155397 0.984872)
(2.39034e-05 2.47756e-05 0.482646)
(0.00262305 -0.0198927 1.27909)
(0.000895489 -0.00200322 1.41488)
(-0.000170485 0.0012574 1.45782)
(0.000194514 0.00208758 1.44111)
(-0.00026298 0.00138022 1.33062)
(-0.000227673 0.000562563 1.0436)
(-2.4975e-05 7.43145e-05 0.508127)
(0.00011766 -0.0208384 3.19979)
(0.00182226 -0.00990976 3.34098)
(8.70189e-05 -0.00291297 3.43168)
(-0.000201815 0.00249694 3.47411)
(-0.000201564 0.00510322 3.41992)
(-0.00123726 0.00432106 3.10205)
(-0.00164243 0.00167937 2.32762)
(-0.000325355 0.000149389 1.01995)
(-0.0208381 0.000117365 3.19979)
(-0.00508563 -0.00508809 4.43633)
(-0.00123298 -0.0067046 4.73401)
(-0.00138237 -0.00230548 4.84756)
(-0.00069182 0.0020028 4.87583)
(-0.00139301 0.00417813 4.73398)
(-0.00308956 0.00308033 4.18871)
(-0.00254457 0.00117427 3.06032)
(-0.000446746 9.14448e-05 1.29527)
(-0.0198918 0.00262262 1.27908)
(-0.00990599 0.00182167 3.34099)
(-0.00669239 -0.00124049 4.73396)
(-0.00310538 -0.00309696 5.46506)
(-0.00153997 -0.00152882 5.69039)
(-0.00145873 0.00123009 5.71023)
(-0.00232572 0.00224343 5.45992)
(-0.00317673 0.00156568 4.73181)
(-0.0020533 0.000583196 3.43345)
(-0.000342629 0.000119781 1.43626)
(-0.0019977 0.000895697 1.41488)
(-0.00290312 9.01912e-05 3.43162)
(-0.00231267 -0.00137977 4.84755)
(-0.0015349 -0.00153337 5.69043)
(-0.000968557 -0.000970061 6.03704)
(-0.000949012 0.000795948 6.06184)
(-0.00113627 0.00159214 5.74571)
(-0.00117399 0.000948845 4.95515)
(-0.00071463 0.000268323 3.59272)
(-0.000109264 0.000209348 1.49605)
(0.00126051 -0.000161684 1.4578)
(0.00249471 -0.000209356 3.47409)
(0.00200206 -0.000690808 4.8759)
(0.00123055 -0.00146001 5.71024)
(0.0007966 -0.0009529 6.06184)
(0.000879866 0.000879966 6.08483)
(0.00106581 0.00146773 5.7614)
(0.00102868 0.000812159 4.96794)
(0.000579038 0.000326483 3.59922)
(9.34576e-05 0.000199585 1.49545)
(0.00209309 0.000189281 1.44112)
(0.00510767 -0.000206463 3.41994)
(0.00417758 -0.00139305 4.73399)
(0.00224023 -0.00233027 5.4599)
(0.00158996 -0.00113817 5.74571)
(0.00146743 0.001066 5.76141)
(0.00171718 0.00171637 5.46989)
(0.00192982 0.00118088 4.72909)
(0.00112072 0.000613227 3.42782)
(0.000181943 0.000107692 1.42813)
(0.00139677 -0.000265599 1.3306)
(0.00431917 -0.00123653 3.10204)
(0.00307421 -0.00309349 4.18869)
(0.00156184 -0.00318009 4.7318)
(0.000948123 -0.00117384 4.95516)
(0.000812456 0.00102891 4.96794)
(0.00118189 0.00192852 4.72908)
(0.00151117 0.00150929 4.11215)
(0.000928551 0.00075041 3.00087)
(0.000193086 6.32114e-05 1.26971)
(0.000553992 -0.000229901 1.04359)
(0.00167134 -0.00164894 2.32761)
(0.00117062 -0.00254927 3.06031)
(0.000582642 -0.00205264 3.43345)
(0.000266912 -0.000712248 3.59272)
(0.000325002 0.000579568 3.5992)
(0.000613412 0.00111926 3.42781)
(0.000750157 0.000929559 3.00086)
(0.000488898 0.000491385 2.228)
(0.000137018 5.4786e-05 0.981448)
(6.68251e-05 -3.18851e-05 0.508128)
(0.000146396 -0.000331011 1.01993)
(9.41171e-05 -0.000439661 1.29527)
(0.000121846 -0.000331491 1.43626)
(0.000207661 -0.000103915 1.49603)
(0.000197065 9.51734e-05 1.49544)
(0.000106098 0.00018704 1.42813)
(6.18783e-05 0.000199234 1.2697)
(5.36316e-05 0.000139918 0.981442)
(2.3006e-05 2.28454e-05 0.480938)
(0.00214585 -0.029985 1.24594)
(0.00101585 -0.00565434 1.40275)
(-0.000220294 -0.00115656 1.45785)
(0.0004439 0.000793148 1.47009)
(-0.00014378 0.00124904 1.44283)
(-0.000294951 0.00103911 1.32047)
(-0.000153338 0.000467148 1.03045)
(-5.68611e-05 4.07865e-05 0.502901)
(-0.0116719 -0.0116721 2.89395)
(0.000921215 -0.0132933 3.21376)
(0.000179636 -0.0080732 3.38594)
(-0.000231475 -0.00240782 3.47415)
(0.000118197 0.00195612 3.50797)
(-0.000396202 0.00402995 3.428)
(-0.00124307 0.00332848 3.07944)
(-0.00132539 0.00134466 2.30224)
(-0.000312346 0.000157307 1.01124)
(-0.0299844 0.00214559 1.24594)
(-0.0132904 0.000919835 3.21376)
(-0.00510787 -0.00511818 4.36414)
(-0.00180284 -0.00595288 4.73506)
(-0.000678 -0.00204141 4.87586)
(-0.00069673 0.00171403 4.90066)
(-0.00154892 0.00370194 4.73289)
(-0.00265553 0.00269819 4.16602)
(-0.00200055 0.00105319 3.04413)
(-0.000363566 0.000195756 1.28872)
(-0.00564876 0.00101563 1.40274)
(-0.00805985 0.000178563 3.38591)
(-0.00596245 -0.00179744 4.73506)
(-0.00248771 -0.0024797 5.45997)
(-0.00142548 -0.00143049 5.71026)
(-0.00156573 0.00119321 5.72863)
(-0.00216615 0.0022123 5.46239)
(-0.00266937 0.00143985 4.73069)
(-0.00166411 0.0005607 3.43207)
(-0.000257778 0.000229574 1.43351)
(-0.00114081 -0.000212901 1.45783)
(-0.0024165 -0.000236789 3.47413)
(-0.00204841 -0.000675969 4.87593)
(-0.00142901 -0.00142692 5.71028)
(-0.000945565 -0.000949609 6.06181)
(-0.000840724 0.000875411 6.08482)
(-0.000969109 0.00149257 5.76142)
(-0.00101198 0.000828165 4.96794)
(-0.000597684 0.0003198 3.5992)
(-7.61755e-05 0.000208849 1.49544)
(0.000783822 0.000436758 1.47009)
(0.0019544 0.000110941 3.50803)
(0.00171446 -0.000696575 4.9007)
(0.00119358 -0.00156991 5.7286)
(0.000875231 -0.000842633 6.08481)
(0.000841174 0.000841351 6.10618)
(0.000912099 0.00127944 5.77595)
(0.000866295 0.000771327 4.97883)
(0.000481061 0.000391674 3.60388)
(7.7265e-05 0.000110132 1.49451)
(0.00125797 -0.00015236 1.44282)
(0.00402921 -0.000394243 3.42801)
(0.00369802 -0.00155016 4.73286)
(0.00220939 -0.00216865 5.46236)
(0.00149218 -0.000968932 5.76141)
(0.00128003 0.000912328 5.77595)
(0.00152212 0.00152133 5.47435)
(0.00167636 0.00114931 4.72861)
(0.000937917 0.000607689 3.42528)
(0.000158505 4.08883e-05 1.4256)
(0.00103144 -0.00029643 1.32046)
(0.00332087 -0.00124354 3.07942)
(0.00269283 -0.00265801 4.16599)
(0.00143905 -0.00266946 4.73068)
(0.000828675 -0.00101043 4.96793)
(0.000771811 0.000866663 4.97882)
(0.00115052 0.00167479 4.7286)
(0.00135068 0.00135043 4.1043)
(0.000795022 0.000673244 2.99359)
(0.000174954 4.99337e-05 1.2662)
(0.000449418 -0.000158735 1.03047)
(0.0013401 -0.00132867 2.30224)
(0.00105316 -0.00199969 3.04413)
(0.00056103 -0.0016604 3.43207)
(0.000318792 -0.00059491 3.59918)
(0.000391595 0.000480616 3.60386)
(0.000608017 0.000938245 3.42527)
(0.000672427 0.000797307 2.99359)
(0.000428551 0.000430433 2.22138)
(0.000126416 5.78334e-05 0.978388)
(3.90509e-05 -5.83815e-05 0.502902)
(0.000160118 -0.00030586 1.01124)
(0.000199454 -0.000351335 1.28872)
(0.000229718 -0.000249325 1.43351)
(0.000206638 -7.39849e-05 1.49543)
(0.000108633 7.99981e-05 1.49451)
(4.0354e-05 0.000163383 1.42559)
(4.94322e-05 0.000178806 1.26619)
(5.77317e-05 0.000126726 0.978385)
(2.14879e-05 2.06824e-05 0.479397)
(-0.00308296 -0.0298386 1.11185)
(0.00105062 -0.00846907 1.34434)
(-0.000168193 -0.0032185 1.43691)
(0.000540619 -0.000833419 1.4701)
(-7.27284e-05 0.000475639 1.47928)
(-0.000360671 0.00100121 1.44394)
(-0.000147163 0.000801803 1.31116)
(-0.000159215 0.000314491 1.01988)
(-7.05559e-05 2.42005e-05 0.498551)
(-0.0298382 -0.00308309 1.11185)
(-0.00610774 -0.0061095 2.71702)
(-0.000571145 -0.0102912 3.19475)
(-0.000358306 -0.00654058 3.40679)
(0.000154695 -0.00199598 3.508)
(-5.50598e-05 0.00158373 3.53499)
(-0.000591996 0.00326046 3.43214)
(-0.00116206 0.00258737 3.06028)
(-0.00108914 0.00107351 2.28272)
(-0.000267962 0.000182447 1.00415)
(-0.00846461 0.00105006 1.34434)
(-0.0102789 -0.000576913 3.19474)
(-0.00486072 -0.00485269 4.30174)
(-0.00130208 -0.00491089 4.73463)
(-0.000643283 -0.00185218 4.90071)
(-0.000950024 0.00158508 4.9218)
(-0.00154144 0.00324676 4.73172)
(-0.00225482 0.00229314 4.14794)
(-0.00160961 0.0009437 3.03051)
(-0.000282645 0.000242299 1.28304)
(-0.00319614 -0.000165538 1.43691)
(-0.00655245 -0.000358346 3.40678)
(-0.0049207 -0.00129718 4.73466)
(-0.00227957 -0.00228117 5.45884)
(-0.00153964 -0.0013124 5.72863)
(-0.00155003 0.00118614 5.74561)
(-0.00192965 0.00202401 5.46582)
(-0.0022628 0.00128192 4.72974)
(-0.00136766 0.000574428 3.43009)
(-0.000195667 0.000220895 1.43079)
(-0.000855932 0.000535303 1.4701)
(-0.0020045 0.000149044 3.50806)
(-0.00185105 -0.000643464 4.90074)
(-0.00130812 -0.0015442 5.72861)
(-0.000841787 -0.000843817 6.08477)
(-0.000719432 0.000851479 6.10617)
(-0.000851911 0.00130139 5.77596)
(-0.000886825 0.000771675 4.97882)
(-0.000494134 0.000383345 3.60387)
(-6.16369e-05 0.000124032 1.49452)
(0.000471977 -8.41873e-05 1.47922)
(0.0015841 -5.25345e-05 3.53503)
(0.00158535 -0.000950015 4.92177)
(0.00118569 -0.0015523 5.74557)
(0.000851293 -0.000719251 6.10617)
(0.000727846 0.000728114 6.12606)
(0.000771998 0.00112539 5.78947)
(0.000745428 0.000789415 4.98811)
(0.00040322 0.000427057 3.6071)
(6.45243e-05 2.49454e-05 1.49339)
(0.000997836 -0.000361569 1.44392)
(0.00325639 -0.000587726 3.43212)
(0.00324301 -0.00154184 4.73167)
(0.00202355 -0.00192956 5.4658)
(0.00130209 -0.000850554 5.77595)
(0.00112599 0.000772411 5.78946)
(0.00138917 0.00138798 5.47906)
(0.00146882 0.00111862 4.7283)
(0.000793647 0.000579099 3.42267)
(0.000139619 1.15163e-05 1.42319)
(0.000782139 -0.000147569 1.31117)
(0.00258166 -0.00116242 3.06026)
(0.00229226 -0.0022548 4.14792)
(0.00128326 -0.00226081 4.72973)
(0.000772505 -0.000884844 4.9788)
(0.0007904 0.00074488 4.9881)
(0.00111898 0.00146839 4.72829)
(0.00120326 0.00120415 4.09782)
(0.000686972 0.000598983 2.98723)
(0.000160907 5.61747e-05 1.26305)
(0.000308137 -0.000161114 1.01989)
(0.00107521 -0.00108754 2.28271)