/*--------------------------------*- C++ -*----------------------------------*\
  =========                 |
  \\      /  F ield         | OpenFOAM: The Open Source CFD Toolbox
   \\    /   O peration     | Website:  https://openfoam.org
    \\  /    A nd           | Version:  12
     \\/     M anipulation  |
\*---------------------------------------------------------------------------*/
FoamFile
{
    format      ascii;
    class       volScalarField;
    location    "50";
    object      yPlus;
}
// * * * * * * * * * * * * * * * * * * * * * * * * * * * * * * * * * * * * * //

dimensions      [];

internalField   uniform 0;

boundaryField
{
    inlet
    {
        type            calculated;
        value           uniform 0;
    }
    outlet
    {
        type            calculated;
        value           uniform 0;
    }
    wall
    {
        type            calculated;
        value           nonuniform List<scalar> 
4000
(
2.64596
3.33509
3.53028
3.57659
3.5819
3.58189
3.57656
3.53025
3.33508
2.64595
2.4682
3.38963
3.66615
3.7447
3.76093
3.76092
3.7448
3.66621
3.38954
2.46822
2.37463
3.35248
3.68431
3.7908
3.81844
3.81845
3.7909
3.68442
3.35263
2.37467
2.31187
3.29594
3.66531
3.79632
3.83432
3.83433
3.79633
3.66529
3.29588
2.31179
2.28285
3.25661
3.64764
3.7983
3.84567
3.84566
3.79825
3.64755
3.25649
2.28287
2.26722
3.23042
3.63378
3.79979
3.85547
3.85548
3.79981
3.63384
3.23052
2.2673
2.2542
3.2102
3.62113
3.79909
3.86195
3.86198
3.79914
3.62123
3.21033
2.25417
2.24261
3.19364
3.60943
3.79666
3.86561
3.86562
3.79668
3.60946
3.19364
2.24255
2.23283
3.18009
3.59904
3.79341
3.86743
3.86743
3.79338
3.59898
3.18
2.23282
2.22466
3.16893
3.58995
3.78985
3.86806
3.86805
3.7898
3.58988
3.16884
2.2247
2.21766
3.15954
3.582
3.78621
3.86787
3.86786
3.78617
3.58196
3.1595
2.21769
2.2115
3.15146
3.57499
3.78258
3.86709
3.86708
3.78257
3.57499
3.15148
2.2115
2.20607
3.14443
3.56879
3.77906
3.86589
3.86589
3.77906
3.56881
3.14447
2.20605
2.20125
3.13827
3.56328
3.7757
3.86444
3.86444
3.77572
3.56331
3.1383
2.20123
2.19692
3.1328
3.55836
3.77252
3.86281
3.86282
3.77253
3.55838
3.13281
2.19691
2.19303
3.12791
3.55394
3.76952
3.86109
3.86109
3.76952
3.55394
3.12791
2.19303
2.18951
3.12353
3.54996
3.7667
3.85933
3.85933
3.7667
3.54994
3.12351
2.18951
2.18632
3.11957
3.54634
3.76407
3.85758
3.85758
3.76406
3.54632
3.11955
2.18632
2.18341
3.11598
3.54306
3.76161
3.85585
3.85585
3.7616
3.54303
3.11596
2.18341
2.18075
3.11271
3.54006
3.75932
3.85418
3.85418
3.75931
3.54004
3.11269
2.18075
2.17831
3.10972
3.53731
3.75718
3.85257
3.85257
3.75717
3.53729
3.10971
2.17831
2.17607
3.10698
3.53479
3.7552
3.85103
3.85103
3.75519
3.53478
3.10697
2.17606
2.174
3.10445
3.53246
3.75334
3.84957
3.84957
3.75334
3.53246
3.10445
2.17399
2.17208
3.10213
3.53032
3.75162
3.84818
3.84818
3.75161
3.53032
3.10212
2.17207
2.17031
3.09997
3.52834
3.75
3.84687
3.84686
3.75
3.52833
3.09997
2.1703
2.16866
3.09798
3.5265
3.7485
3.84562
3.84562
3.7485
3.52649
3.09797
2.16865
2.16714
3.09614
3.5248
3.7471
3.84446
3.84446
3.74709
3.52479
3.09613
2.16713
2.16574
3.09444
3.52323
3.7458
3.84337
3.84337
3.74579
3.52322
3.09443
2.16573
2.16443
3.09285
3.52176
3.74459
3.84234
3.84234
3.74458
3.52176
3.09284
2.16442
2.1632
3.09138
3.5204
3.74345
3.84138
3.84138
3.74345
3.52039
3.09137
2.1632
2.16207
3.09
3.51913
3.7424
3.84048
3.84048
3.74239
3.51912
3.08999
2.16206
2.161
3.08872
3.51795
3.74141
3.83964
3.83963
3.7414
3.51794
3.08871
2.161
2.16001
3.08752
3.51684
3.74048
3.83884
3.83884
3.74047
3.51683
3.08751
2.16
2.15907
3.0864
3.5158
3.73961
3.8381
3.8381
3.7396
3.51579
3.08639
2.15907
2.15821
3.08536
3.51484
3.7388
3.8374
3.8374
3.73879
3.51482
3.08535
2.1582
2.15739
3.08438
3.51393
3.73804
3.83675
3.83675
3.73803
3.51392
3.08437
2.15739
2.15665
3.08348
3.51309
3.73734
3.83615
3.83614
3.73733
3.51308
3.08347
2.15664
2.15595
3.08264
3.51231
3.73668
3.83558
3.83558
3.73667
3.5123
3.08262
2.15594
2.15529
3.08184
3.51158
3.73607
3.83505
3.83505
3.73606
3.51157
3.08183
2.15529
2.15468
3.0811
3.51089
3.73549
3.83455
3.83455
3.73548
3.51088
3.08109
2.15467
2.15411
3.08042
3.51026
3.73496
3.8341
3.83409
3.73495
3.51025
3.08041
2.15411
2.15359
3.07978
3.50966
3.73446
3.83366
3.83366
3.73445
3.50965
3.07977
2.15358
2.15309
3.07918
3.50911
3.73399
3.83327
3.83326
3.73398
3.5091
3.07917
2.15309
2.15263
3.07862
3.50859
3.73355
3.83289
3.83288
3.73354
3.50857
3.07861
2.15262
2.15219
3.0781
3.5081
3.73315
3.83254
3.83253
3.73314
3.50809
3.07808
2.15219
2.15179
3.07761
3.50765
3.73276
3.83221
3.83221
3.73276
3.50764
3.0776
2.15179
2.15142
3.07715
3.50723
3.73241
3.83191
3.8319
3.7324
3.50721
3.07714
2.15141
2.15106
3.07672
3.50683
3.73208
3.83162
3.83161
3.73207
3.50682
3.07671
2.15106
2.15073
3.07632
3.50646
3.73176
3.83135
3.83135
3.73176
3.50644
3.07631
2.15073
2.15042
3.07595
3.50611
3.73147
3.8311
3.83109
3.73146
3.5061
3.07594
2.15041
2.15013
3.0756
3.50578
3.7312
3.83086
3.83086
3.73119
3.50577
3.07559
2.15013
2.14986
3.07527
3.50548
3.73094
3.83064
3.83064
3.73093
3.50547
3.07526
2.14985
2.1496
3.07496
3.50519
3.7307
3.83044
3.83043
3.7307
3.50518
3.07495
2.1496
2.14937
3.07467
3.50492
3.73048
3.83024
3.83024
3.73047
3.50491
3.07467
2.14936
2.14914
3.0744
3.50467
3.73027
3.83006
3.83006
3.73026
3.50466
3.0744
2.14914
2.14893
3.07415
3.50444
3.73007
3.82989
3.82989
3.73006
3.50443
3.07414
2.14893
2.14874
3.07391
3.50422
3.72989
3.82974
3.82973
3.72988
3.50421
3.07391
2.14873
2.14855
3.07369
3.50401
3.72971
3.82959
3.82959
3.72971
3.50401
3.07368
2.14855
2.14838
3.07348
3.50382
3.72955
3.82945
3.82945
3.72955
3.50381
3.07348
2.14838
2.14822
3.07329
3.50364
3.7294
3.82932
3.82932
3.7294
3.50364
3.07329
2.14822
2.14807
3.07311
3.50347
3.72926
3.8292
3.8292
3.72926
3.50347
3.0731
2.14807
2.14792
3.07293
3.50331
3.72912
3.82908
3.82908
3.72912
3.5033
3.07293
2.14792
2.14778
3.07277
3.50316
3.729
3.82897
3.82897
3.72899
3.50315
3.07276
2.14778
2.14766
3.07262
3.50302
3.72888
3.82887
3.82887
3.72887
3.50301
3.07261
2.14766
2.14754
3.07247
3.50288
3.72877
3.82877
3.82877
3.72876
3.50288
3.07247
2.14754
2.14742
3.07233
3.50276
3.72866
3.82868
3.82868
3.72866
3.50275
3.07233
2.14742
2.14732
3.07221
3.50264
3.72856
3.8286
3.8286
3.72856
3.50264
3.07221
2.14732
2.14723
3.0721
3.50253
3.72847
3.82852
3.82852
3.72847
3.50253
3.07209
2.14723
2.14714
3.07199
3.50243
3.72839
3.82845
3.82845
3.72839
3.50243
3.07198
2.14714
2.14706
3.07189
3.50234
3.72831
3.82838
3.82838
3.72831
3.50234
3.07188
2.14706
2.14697
3.07179
3.50225
3.72823
3.82832
3.82832
3.72823
3.50224
3.07178
2.14697
2.14688
3.07169
3.50216
3.72816
3.82825
3.82825
3.72815
3.50215
3.07168
2.14688
2.14681
3.0716
3.50208
3.72809
3.82819
3.82819
3.72808
3.50207
3.07159
2.1468
2.14674
3.07152
3.502
3.72802
3.82813
3.82813
3.72802
3.50199
3.07151
2.14674
2.14667
3.07144
3.50193
3.72796
3.82808
3.82808
3.72796
3.50192
3.07143
2.14667
2.14662
3.07137
3.50186
3.72791
3.82803
3.82803
3.7279
3.50185
3.07136
2.14662
2.14657
3.07131
3.50181
3.72786
3.82799
3.82799
3.72786
3.5018
3.0713
2.14657
2.14653
3.07125
3.50175
3.72781
3.82795
3.82795
3.72781
3.50174
3.07124
2.14652
2.14648
3.0712
3.5017
3.72777
3.82792
3.82792
3.72777
3.5017
3.07119
2.14648
2.14644
3.07115
3.50165
3.72773
3.82788
3.82788
3.72773
3.50165
3.07114
2.14644
2.1464
3.0711
3.50161
3.7277
3.82785
3.82785
3.72769
3.5016
3.0711
2.1464
2.14637
3.07105
3.50157
3.72766
3.82782
3.82782
3.72765
3.50156
3.07105
2.14636
2.14633
3.07101
3.50153
3.72763
3.82779
3.82779
3.72762
3.50152
3.07101
2.14633
2.1463
3.07097
3.50149
3.72759
3.82777
3.82776
3.72759
3.50148
3.07097
2.14629
2.14626
3.07093
3.50145
3.72756
3.82774
3.82774
3.72756
3.50145
3.07093
2.14626
2.14623
3.0709
3.50142
3.72753
3.82771
3.82771
3.72753
3.50141
3.07089
2.14623
2.1462
3.07086
3.50139
3.72751
3.82769
3.82769
3.7275
3.50138
3.07086
2.1462
2.14618
3.07083
3.50136
3.72748
3.82767
3.82767
3.72748
3.50135
3.07083
2.14618
2.14616
3.07081
3.50133
3.72746
3.82765
3.82765
3.72746
3.50133
3.0708
2.14616
2.14615
3.07078
3.50131
3.72745
3.82764
3.82764
3.72744
3.50131
3.07078
2.14615
2.14613
3.07076
3.5013
3.72743
3.82763
3.82763
3.72743
3.50129
3.07076
2.14613
2.14611
3.07074
3.50127
3.72741
3.82761
3.82761
3.72741
3.50127
3.07073
2.14611
2.14609
3.07072
3.50125
3.72739
3.82759
3.82759
3.72739
3.50125
3.07071
2.14609
2.14607
3.07069
3.50123
3.72738
3.82758
3.82758
3.72737
3.50123
3.07069
2.14607
2.14606
3.07068
3.50121
3.72736
3.82757
3.82757
3.72736
3.50121
3.07068
2.14606
2.14604
3.07066
3.5012
3.72735
3.82756
3.82756
3.72735
3.5012
3.07066
2.14604
2.14603
3.07065
3.50118
3.72734
3.82755
3.82755
3.72734
3.50118
3.07065
2.14603
2.14603
3.07064
3.50117
3.72733
3.82754
3.82754
3.72733
3.50117
3.07064
2.14603
2.14602
3.07062
3.50116
3.72732
3.82753
3.82753
3.72732
3.50116
3.07062
2.14602
2.14602
3.07062
3.50115
3.72731
3.82753
3.82753
3.72731
3.50116
3.07062
2.14602
2.64595
3.33506
3.53033
3.57666
3.58199
3.58199
3.57665
3.53031
3.33505
2.64592
2.46822
3.38976
3.66633
3.74503
3.76138
3.76149
3.74534
3.66656
3.38972
2.46828
2.37466
3.35241
3.68428
3.79057
3.81814
3.81818
3.79066
3.6844
3.35256
2.37469
2.31179
3.29587
3.66526
3.7962
3.83417
3.83419
3.7962
3.66525
3.29584
2.31171
2.28289
3.25677
3.64776
3.79846
3.84614
3.84626
3.79846
3.64774
3.25668
2.28295
2.26731
3.23047
3.63383
3.79992
3.85574
3.8558
3.79996
3.63389
3.23053
2.26737
2.25417
3.21006
3.621
3.79902
3.86194
3.86197
3.79906
3.62108
3.21015
2.25411
2.24255
3.19355
3.60933
3.79655
3.86548
3.86548
3.79653
3.60933
3.19354
2.24248
2.23283
3.18017
3.59909
3.79341
3.86737
3.86735
3.79334
3.599
3.18007
2.23282
2.2247
3.16906
3.59008
3.78994
3.86811
3.86808
3.78987
3.58999
3.16896
2.22473
2.21769
3.15961
3.5821
3.78631
3.86796
3.86794
3.78626
3.58206
3.15956
2.21771
2.2115
3.15144
3.57501
3.78263
3.86715
3.86715
3.78262
3.57501
3.15144
2.21149
2.20605
3.14436
3.56874
3.77905
3.86591
3.86591
3.77906
3.56877
3.14439
2.20603
2.20123
3.1382
3.56322
3.77566
3.86441
3.86442
3.77567
3.56324
3.13823
2.20121
2.19691
3.13276
3.5583
3.77246
3.86276
3.86277
3.77247
3.55831
3.13276
2.19689
2.19303
3.12791
3.55391
3.76947
3.86104
3.86104
3.76946
3.5539
3.12789
2.19302
2.18951
3.12354
3.54995
3.76667
3.85929
3.85928
3.76666
3.54992
3.12352
2.18951
2.18632
3.11959
3.54635
3.76406
3.85755
3.85754
3.76404
3.54632
3.11956
2.18632
2.18341
3.116
3.54307
3.76161
3.85584
3.85583
3.76159
3.54304
3.11597
2.18341
2.18075
3.11271
3.54007
3.75933
3.85418
3.85417
3.75931
3.54004
3.1127
2.18075
2.17831
3.10971
3.53731
3.75719
3.85257
3.85256
3.75717
3.53729
3.1097
2.17831
2.17606
3.10696
3.53478
3.75519
3.85103
3.85103
3.75519
3.53477
3.10696
2.17606
2.17399
3.10444
3.53245
3.75333
3.84956
3.84956
3.75333
3.53245
3.10443
2.17399
2.17208
3.10211
3.5303
3.7516
3.84817
3.84817
3.7516
3.5303
3.10211
2.17207
2.1703
3.09996
3.52832
3.74999
3.84685
3.84685
3.74998
3.52832
3.09995
2.17029
2.16865
3.09797
3.52648
3.74848
3.84561
3.84561
3.74848
3.52648
3.09796
2.16865
2.16713
3.09613
3.52478
3.74708
3.84444
3.84444
3.74708
3.52478
3.09612
2.16713
2.16573
3.09443
3.52321
3.74578
3.84335
3.84335
3.74578
3.52321
3.09442
2.16573
2.16442
3.09285
3.52175
3.74457
3.84233
3.84232
3.74457
3.52174
3.09284
2.16442
2.1632
3.09137
3.52039
3.74344
3.84137
3.84137
3.74343
3.52038
3.09137
2.1632
2.16206
3.09
3.51912
3.74238
3.84047
3.84046
3.74238
3.51911
3.08999
2.16206
2.161
3.08872
3.51794
3.74139
3.83962
3.83962
3.74139
3.51793
3.08871
2.16099
2.16
3.08752
3.51683
3.74047
3.83883
3.83883
3.74046
3.51682
3.08751
2.16
2.15907
3.08639
3.51579
3.7396
3.83808
3.83808
3.73959
3.51578
3.08639
2.15906
2.1582
3.08535
3.51482
3.73879
3.83739
3.83738
3.73878
3.51481
3.08534
2.15819
2.15739
3.08437
3.51392
3.73803
3.83673
3.83673
3.73802
3.51391
3.08436
2.15738
2.15664
3.08346
3.51308
3.73732
3.83613
3.83612
3.73731
3.51307
3.08346
2.15663
2.15594
3.08262
3.51229
3.73666
3.83556
3.83556
3.73666
3.51228
3.08261
2.15594
2.15529
3.08183
3.51156
3.73605
3.83503
3.83503
3.73604
3.51155
3.08182
2.15528
2.15467
3.08109
3.51087
3.73547
3.83453
3.83453
3.73546
3.51086
3.08108
2.15467
2.15411
3.0804
3.51024
3.73494
3.83407
3.83407
3.73493
3.51023
3.08039
2.1541
2.15358
3.07976
3.50964
3.73444
3.83364
3.83364
3.73443
3.50963
3.07975
2.15357
2.15309
3.07917
3.50909
3.73397
3.83324
3.83324
3.73396
3.50908
3.07916
2.15308
2.15262
3.0786
3.50857
3.73353
3.83287
3.83286
3.73353
3.50856
3.0786
2.15262
2.15219
3.07808
3.50808
3.73313
3.83252
3.83251
3.73312
3.50807
3.07807
2.15218
2.15179
3.0776
3.50763
3.73275
3.83219
3.83219
3.73274
3.50762
3.07759
2.15178
2.15141
3.07714
3.50721
3.73239
3.83189
3.83188
3.73239
3.5072
3.07713
2.15141
2.15106
3.07671
3.50681
3.73206
3.8316
3.8316
3.73205
3.5068
3.07671
2.15105
2.15073
3.07631
3.50644
3.73175
3.83133
3.83133
3.73174
3.50643
3.07631
2.15072
2.15042
3.07594
3.50609
3.73145
3.83108
3.83108
3.73145
3.50609
3.07593
2.15041
2.15013
3.07559
3.50577
3.73118
3.83085
3.83085
3.73118
3.50576
3.07558
2.15012
2.14985
3.07526
3.50546
3.73093
3.83063
3.83063
3.73092
3.50546
3.07525
2.14985
2.1496
3.07495
3.50518
3.73069
3.83042
3.83042
3.73068
3.50517
3.07495
2.1496
2.14936
3.07467
3.50491
3.73047
3.83023
3.83023
3.73046
3.50491
3.07466
2.14936
2.14914
3.0744
3.50466
3.73026
3.83005
3.83005
3.73025
3.50466
3.07439
2.14914
2.14893
3.07414
3.50443
3.73006
3.82988
3.82988
3.73005
3.50442
3.07414
2.14893
2.14873
3.07391
3.50421
3.72988
3.82972
3.82972
3.72987
3.5042
3.0739
2.14873
2.14855
3.07369
3.504
3.7297
3.82958
3.82958
3.7297
3.504
3.07368
2.14855
2.14838
3.07348
3.50381
3.72954
3.82944
3.82944
3.72954
3.50381
3.07348
2.14838
2.14822
3.07329
3.50363
3.72939
3.82931
3.82931
3.72939
3.50363
3.07328
2.14822
2.14807
3.0731
3.50346
3.72925
3.82919
3.82919
3.72925
3.50346
3.0731
2.14807
2.14792
3.07293
3.5033
3.72912
3.82907
3.82907
3.72911
3.5033
3.07292
2.14792
2.14778
3.07276
3.50315
3.72899
3.82896
3.82896
3.72898
3.50315
3.07276
2.14778
2.14766
3.07261
3.50301
3.72887
3.82886
3.82886
3.72887
3.50301
3.07261
2.14766
2.14754
3.07247
3.50288
3.72876
3.82877
3.82876
3.72875
3.50287
3.07246
2.14753
2.14742
3.07233
3.50275
3.72865
3.82867
3.82867
3.72865
3.50275
3.07232
2.14742
2.14732
3.0722
3.50263
3.72855
3.82859
3.82859
3.72855
3.50263
3.0722
2.14732
2.14723
3.07209
3.50253
3.72846
3.82851
3.82851
3.72846
3.50252
3.07209
2.14722
2.14714
3.07198
3.50243
3.72838
3.82844
3.82844
3.72838
3.50242
3.07198
2.14714
2.14706
3.07188
3.50233
3.7283
3.82838
3.82837
3.7283
3.50233
3.07188
2.14705
2.14697
3.07178
3.50224
3.72823
3.82831
3.82831
3.72822
3.50224
3.07178
2.14697
2.14688
3.07168
3.50215
3.72815
3.82824
3.82824
3.72815
3.50215
3.07168
2.14688
2.1468
3.07159
3.50207
3.72808
3.82818
3.82818
3.72807
3.50206
3.07159
2.1468
2.14674
3.07151
3.50199
3.72801
3.82812
3.82812
3.72801
3.50198
3.0715
2.14673
2.14667
3.07143
3.50192
3.72795
3.82807
3.82807
3.72795
3.50191
3.07142
2.14667
2.14662
3.07136
3.50185
3.7279
3.82802
3.82802
3.72789
3.50185
3.07136
2.14661
2.14657
3.0713
3.50179
3.72785
3.82798
3.82798
3.72784
3.50179
3.0713
2.14656
2.14652
3.07124
3.50174
3.7278
3.82794
3.82794
3.7278
3.50174
3.07124
2.14652
2.14648
3.07119
3.50169
3.72776
3.82791
3.82791
3.72776
3.50169
3.07119
2.14648
2.14644
3.07114
3.50164
3.72772
3.82787
3.82787
3.72772
3.50164
3.07113
2.14644
2.1464
3.07109
3.5016
3.72768
3.82784
3.82784
3.72768
3.5016
3.07109
2.1464
2.14636
3.07105
3.50156
3.72765
3.82781
3.82781
3.72765
3.50155
3.07104
2.14636
2.14633
3.07101
3.50152
3.72762
3.82778
3.82778
3.72761
3.50152
3.071
2.14633
2.14629
3.07097
3.50148
3.72758
3.82776
3.82775
3.72758
3.50148
3.07096
2.14629
2.14626
3.07093
3.50145
3.72756
3.82773
3.82773
3.72755
3.50144
3.07092
2.14626
2.14623
3.07089
3.50141
3.72752
3.8277
3.8277
3.72752
3.50141
3.07088
2.14623
2.1462
3.07086
3.50138
3.7275
3.82768
3.82768
3.7275
3.50138
3.07085
2.1462
2.14618
3.07082
3.50135
3.72747
3.82766
3.82766
3.72747
3.50135
3.07082
2.14618
2.14616
3.0708
3.50133
3.72746
3.82765
3.82764
3.72745
3.50132
3.0708
2.14616
2.14615
3.07078
3.50131
3.72744
3.82763
3.82763
3.72744
3.50131
3.07078
2.14615
2.14613
3.07076
3.50129
3.72742
3.82762
3.82762
3.72742
3.50129
3.07076
2.14613
2.14611
3.07073
3.50127
3.7274
3.8276
3.8276
3.7274
3.50126
3.07073
2.1461
2.14609
3.07071
3.50125
3.72739
3.82759
3.82759
3.72739
3.50124
3.07071
2.14609
2.14607
3.07069
3.50123
3.72737
3.82757
3.82757
3.72737
3.50122
3.07069
2.14607
2.14606
3.07068
3.50121
3.72736
3.82756
3.82756
3.72736
3.50121
3.07067
2.14606
2.14604
3.07066
3.5012
3.72735
3.82755
3.82755
3.72734
3.50119
3.07066
2.14604
2.14603
3.07064
3.50118
3.72733
3.82754
3.82754
3.72733
3.50118
3.07064
2.14603
2.14603
3.07064
3.50117
3.72733
3.82754
3.82754
3.72733
3.50117
3.07064
2.14603
2.14602
3.07062
3.50116
3.72732
3.82753
3.82753
3.72732
3.50116
3.07062
2.14602
2.14602
3.07062
3.50116
3.72732
3.82754
3.82754
3.72732
3.50116
3.07062
2.14602
2.64596
2.4682
2.37463
2.31187
2.28285
2.26722
2.2542
2.24261
2.23283
2.22466
2.21766
2.2115
2.20607
2.20125
2.19692
2.19303
2.18951
2.18632
2.18341
2.18075
2.17831
2.17607
2.174
2.17208
2.17031
2.16866
2.16714
2.16574
2.16443
2.1632
2.16207
2.161
2.16001
2.15907
2.15821
2.15739
2.15665
2.15595
2.15529
2.15468
2.15411
2.15359
2.15309
2.15263
2.15219
2.15179
2.15142
2.15106
2.15073
2.15042
2.15013
2.14986
2.1496
2.14937
2.14914
2.14893
2.14874
2.14855
2.14838
2.14822
2.14807
2.14792
2.14778
2.14766
2.14754
2.14742
2.14732
2.14723
2.14714
2.14706
2.14697
2.14688
2.14681
2.14674
2.14667
2.14662
2.14657
2.14653
2.14648
2.14644
2.1464
2.14637
2.14633
2.1463
2.14626
2.14623
2.1462
2.14618
2.14616
2.14615
2.14613
2.14611
2.14609
2.14607
2.14606
2.14604
2.14603
2.14603
2.14602
2.14602
3.33508
3.38963
3.35251
3.29593
3.25658
3.23043
3.21023
3.19366
3.18008
3.16891
3.15952
3.15146
3.14444
3.13828
3.13281
3.12792
3.12353
3.11957
3.11597
3.1127
3.10971
3.10698
3.10445
3.10213
3.09998
3.09798
3.09614
3.09444
3.09285
3.09138
3.09
3.08872
3.08752
3.0864
3.08536
3.08438
3.08348
3.08264
3.08184
3.0811
3.08042
3.07978
3.07918
3.07862
3.0781
3.07761
3.07715
3.07672
3.07632
3.07595
3.0756
3.07527
3.07496
3.07467
3.0744
3.07415
3.07391
3.07369
3.07348
3.07329
3.07311
3.07293
3.07277
3.07262
3.07247
3.07233
3.07221
3.0721
3.07199
3.07189
3.07179
3.07169
3.0716
3.07152
3.07144
3.07137
3.07131
3.07125
3.0712
3.07115
3.0711
3.07105
3.07101
3.07097
3.07093
3.0709
3.07086
3.07083
3.07081
3.07078
3.07076
3.07074
3.07072
3.07069
3.07068
3.07066
3.07064
3.07064
3.07062
3.07062
3.5303
3.66618
3.68432
3.66531
3.64764
3.63378
3.62114
3.60944
3.59903
3.58994
3.582
3.57499
3.56879
3.56329
3.55837
3.55395
3.54996
3.54634
3.54305
3.54005
3.5373
3.53479
3.53246
3.53032
3.52834
3.5265
3.5248
3.52323
3.52177
3.5204
3.51913
3.51795
3.51684
3.5158
3.51484
3.51393
3.51309
3.51231
3.51158
3.51089
3.51026
3.50966
3.50911
3.50859
3.5081
3.50765
3.50723
3.50683
3.50646
3.50611
3.50578
3.50548
3.50519
3.50492
3.50467
3.50444
3.50422
3.50401
3.50382
3.50364
3.50347
3.50331
3.50316
3.50302
3.50288
3.50276
3.50264
3.50253
3.50243
3.50234
3.50225
3.50216
3.50208
3.502
3.50193
3.50186
3.50181
3.50175
3.5017
3.50165
3.50161
3.50157
3.50153
3.50149
3.50145
3.50142
3.50139
3.50136
3.50133
3.50131
3.5013
3.50127
3.50125
3.50123
3.50121
3.5012
3.50118
3.50117
3.50116
3.50115
3.5766
3.74475
3.7908
3.79636
3.79835
3.7998
3.79908
3.79665
3.79341
3.78985
3.78621
3.78259
3.77906
3.77571
3.77252
3.76952
3.7667
3.76407
3.76161
3.75932
3.75719
3.7552
3.75334
3.75162
3.75001
3.7485
3.7471
3.7458
3.74459
3.74345
3.7424
3.74141
3.74048
3.73961
3.7388
3.73804
3.73734
3.73668
3.73607
3.73549
3.73496
3.73446
3.73399
3.73355
3.73315
3.73276
3.73241
3.73208
3.73176
3.73147
3.7312
3.73094
3.7307
3.73048
3.73027
3.73007
3.72989
3.72971
3.72955
3.7294
3.72926
3.72912
3.729
3.72888
3.72877
3.72866
3.72856
3.72847
3.72839
3.72831
3.72823
3.72816
3.72809
3.72802
3.72796
3.72791
3.72786
3.72781
3.72777
3.72773
3.72769
3.72766
3.72763
3.72759
3.72756
3.72753
3.72751
3.72748
3.72746
3.72744
3.72743
3.72741
3.72739
3.72738
3.72736
3.72735
3.72734
3.72733
3.72732
3.72731
3.58191
3.76098
3.81844
3.83437
3.84574
3.85549
3.86193
3.86558
3.86742
3.86807
3.86789
3.8671
3.8659
3.86444
3.86281
3.86109
3.85933
3.85758
3.85586
3.85418
3.85257
3.85104
3.84957
3.84818
3.84687
3.84563
3.84446
3.84337
3.84235
3.84138
3.84048
3.83964
3.83885
3.8381
3.8374
3.83675
3.83615
3.83558
3.83505
3.83456
3.8341
3.83367
3.83327
3.83289
3.83254
3.83221
3.83191
3.83162
3.83135
3.8311
3.83086
3.83064
3.83044
3.83024
3.83006
3.82989
3.82974
3.82959
3.82945
3.82932
3.8292
3.82908
3.82897
3.82887
3.82877
3.82868
3.8286
3.82852
3.82845
3.82838
3.82832
3.82825
3.82819
3.82813
3.82808
3.82803
3.82799
3.82795
3.82792
3.82788
3.82785
3.82782
3.82779
3.82777
3.82774
3.82771
3.82769
3.82767
3.82765
3.82764
3.82763
3.82761
3.82759
3.82758
3.82757
3.82756
3.82755
3.82754
3.82753
3.82753
3.5819
3.76096
3.81844
3.83437
3.84572
3.8555
3.86196
3.8656
3.86742
3.86806
3.86788
3.8671
3.8659
3.86444
3.86281
3.86109
3.85933
3.85758
3.85585
3.85418
3.85257
3.85104
3.84957
3.84818
3.84687
3.84563
3.84446
3.84337
3.84234
3.84138
3.84048
3.83964
3.83884
3.8381
3.8374
3.83675
3.83614
3.83558
3.83505
3.83455
3.83409
3.83366
3.83326
3.83289
3.83253
3.83221
3.8319
3.83161
3.83135
3.83109
3.83086
3.83064
3.83044
3.83024
3.83006
3.82989
3.82973
3.82959
3.82945
3.82932
3.8292
3.82908
3.82897
3.82887
3.82877
3.82868
3.8286
3.82852
3.82845
3.82838
3.82832
3.82825
3.82819
3.82813
3.82808
3.82803
3.82799
3.82795
3.82792
3.82788
3.82785
3.82782
3.82779
3.82776
3.82774
3.82771
3.82769
3.82767
3.82765
3.82764
3.82762
3.82761
3.82759
3.82758
3.82757
3.82756
3.82755
3.82754
3.82753
3.82753
3.57657
3.74483
3.79087
3.79633
3.79828
3.79983
3.79914
3.79667
3.79338
3.7898
3.78617
3.78258
3.77907
3.77572
3.77253
3.76952
3.7667
3.76406
3.7616
3.75931
3.75718
3.75519
3.75334
3.75162
3.75
3.7485
3.7471
3.7458
3.74458
3.74345
3.74239
3.7414
3.74047
3.7396
3.73879
3.73803
3.73733
3.73667
3.73606
3.73548
3.73495
3.73445
3.73398
3.73354
3.73314
3.73276
3.7324
3.73207
3.73176
3.73146
3.73119
3.73094
3.7307
3.73047
3.73026
3.73006
3.72988
3.72971
3.72955
3.7294
3.72926
3.72912
3.72899
3.72887
3.72876
3.72866
3.72856
3.72847
3.72839
3.72831
3.72823
3.72815
3.72808
3.72802
3.72796
3.7279
3.72786
3.72781
3.72777
3.72773
3.72769
3.72765
3.72762
3.72759
3.72756
3.72753
3.7275
3.72748
3.72746
3.72744
3.72743
3.72741
3.72739
3.72737
3.72736
3.72735
3.72734
3.72733
3.72732
3.72731
3.53026
3.66623
3.68444
3.66528
3.64755
3.63385
3.62126
3.60948
3.59899
3.58988
3.58196
3.575
3.56882
3.56332
3.55839
3.55395
3.54995
3.54632
3.54304
3.54004
3.53729
3.53478
3.53246
3.53032
3.52834
3.5265
3.52479
3.52322
3.52176
3.52039
3.51912
3.51794
3.51683
3.51579
3.51482
3.51392
3.51308
3.5123
3.51157
3.51088
3.51025
3.50965
3.5091
3.50857
3.50809
3.50764
3.50721
3.50682
3.50645
3.5061
3.50577
3.50547
3.50518
3.50492
3.50467
3.50443
3.50421
3.50401
3.50381
3.50364
3.50347
3.5033
3.50315
3.50301
3.50288
3.50275
3.50264
3.50253
3.50243
3.50234
3.50224
3.50215
3.50207
3.50199
3.50192
3.50185
3.5018
3.50174
3.5017
3.50165
3.5016
3.50156
3.50152
3.50148
3.50145
3.50141
3.50138
3.50135
3.50133
3.50131
3.50129
3.50127
3.50125
3.50123
3.50121
3.5012
3.50118
3.50117
3.50116
3.50116
3.33508
3.38956
3.35267
3.29586
3.25647
3.23054
3.21036
3.19366
3.18
3.16883
3.15949
3.15148
3.14447
3.13831
3.13282
3.12791
3.12351
3.11955
3.11596
3.11269
3.10971
3.10697
3.10445
3.10213
3.09997
3.09798
3.09613
3.09443
3.09285
3.09137
3.09
3.08871
3.08751
3.08639
3.08535
3.08437
3.08347
3.08262
3.08183
3.08109
3.08041
3.07977
3.07917
3.07861
3.07808
3.0776
3.07714
3.07671
3.07631
3.07594
3.07559
3.07526
3.07495
3.07467
3.0744
3.07414
3.07391
3.07369
3.07348
3.07329
3.0731
3.07293
3.07276
3.07261
3.07247
3.07233
3.07221
3.07209
3.07198
3.07188
3.07178
3.07168
3.07159
3.07151
3.07143
3.07136
3.0713
3.07124
3.07119
3.07114
3.07109
3.07105
3.07101
3.07097
3.07093
3.07089
3.07086
3.07083
3.0708
3.07078
3.07076
3.07073
3.07071
3.07069
3.07068
3.07066
3.07065
3.07064
3.07062
3.07062
2.64595
2.46822
2.37466
2.31179
2.28289
2.26731
2.25417
2.24255
2.23283
2.2247
2.21769
2.2115
2.20605
2.20123
2.19691
2.19303
2.18951
2.18632
2.18341
2.18075
2.17831
2.17606
2.17399
2.17208
2.1703
2.16865
2.16713
2.16573
2.16442
2.1632
2.16206
2.161
2.16
2.15907
2.1582
2.15739
2.15664
2.15594
2.15529
2.15467
2.15411
2.15358
2.15309
2.15262
2.15219
2.15179
2.15141
2.15106
2.15073
2.15042
2.15013
2.14985
2.1496
2.14936
2.14914
2.14893
2.14873
2.14855
2.14838
2.14822
2.14807
2.14792
2.14778
2.14766
2.14754
2.14742
2.14732
2.14723
2.14714
2.14706
2.14697
2.14688
2.1468
2.14674
2.14667
2.14662
2.14657
2.14652
2.14648
2.14644
2.1464
2.14636
2.14633
2.14629
2.14626
2.14623
2.1462
2.14618
2.14616
2.14615
2.14613
2.14611
2.14609
2.14607
2.14606
2.14604
2.14603
2.14603
2.14602
2.14602
2.64595
2.46822
2.37467
2.31179
2.28287
2.2673
2.25417
2.24255
2.23282
2.2247
2.21769
2.2115
2.20605
2.20123
2.19691
2.19303
2.18951
2.18632
2.18341
2.18075
2.17831
2.17606
2.17399
2.17207
2.1703
2.16865
2.16713
2.16573
2.16442
2.1632
2.16206
2.161
2.16
2.15907
2.1582
2.15739
2.15664
2.15594
2.15529
2.15467
2.15411
2.15358
2.15309
2.15262
2.15219
2.15179
2.15141
2.15106
2.15073
2.15041
2.15013
2.14985
2.1496
2.14936
2.14914
2.14893
2.14873
2.14855
2.14838
2.14822
2.14807
2.14792
2.14778
2.14766
2.14754
2.14742
2.14732
2.14723
2.14714
2.14706
2.14697
2.14688
2.1468
2.14674
2.14667
2.14662
2.14657
2.14652
2.14648
2.14644
2.1464
2.14636
2.14633
2.14629
2.14626
2.14623
2.1462
2.14618
2.14616
2.14615
2.14613
2.14611
2.14609
2.14607
2.14606
2.14604
2.14603
2.14603
2.14602
2.14602
3.33506
3.38976
3.35243
3.29585
3.25672
3.23046
3.21009
3.19358
3.18016
3.16904
3.15958
3.15142
3.14436
3.13821
3.13277
3.12791
3.12354
3.11959
3.11599
3.11271
3.10971
3.10696
3.10443
3.10211
3.09996
3.09797
3.09613
3.09443
3.09285
3.09137
3.09
3.08872
3.08752
3.08639
3.08535
3.08437
3.08346
3.08262
3.08183
3.08109
3.0804
3.07976
3.07917
3.0786
3.07808
3.0776
3.07714
3.07671
3.07631
3.07594
3.07559
3.07526
3.07495
3.07467
3.0744
3.07414
3.07391
3.07368
3.07348
3.07329
3.0731
3.07293
3.07276
3.07261
3.07247
3.07233
3.0722
3.07209
3.07198
3.07188
3.07178
3.07168
3.07159
3.07151
3.07143
3.07136
3.0713
3.07124
3.07119
3.07114
3.07109
3.07105
3.07101
3.07097
3.07093
3.07089
3.07086
3.07082
3.0708
3.07078
3.07076
3.07073
3.07071
3.07069
3.07068
3.07066
3.07064
3.07064
3.07062
3.07062
3.53033
3.66634
3.68429
3.66525
3.64774
3.63381
3.62101
3.60934
3.59908
3.59006
3.58208
3.57499
3.56874
3.56322
3.55831
3.55391
3.54995
3.54635
3.54307
3.54006
3.5373
3.53478
3.53245
3.5303
3.52832
3.52648
3.52478
3.52321
3.52175
3.52039
3.51912
3.51794
3.51683
3.51579
3.51482
3.51391
3.51307
3.51229
3.51156
3.51087
3.51024
3.50964
3.50909
3.50857
3.50808
3.50763
3.50721
3.50681
3.50644
3.50609
3.50577
3.50546
3.50518
3.50491
3.50466
3.50443
3.50421
3.504
3.50381
3.50363
3.50346
3.5033
3.50315
3.50301
3.50288
3.50275
3.50263
3.50253
3.50243
3.50233
3.50224
3.50215
3.50207
3.50199
3.50192
3.50185
3.50179
3.50174
3.50169
3.50164
3.5016
3.50156
3.50152
3.50148
3.50145
3.50141
3.50138
3.50135
3.50133
3.50131
3.50129
3.50127
3.50125
3.50123
3.50121
3.5012
3.50118
3.50117
3.50116
3.50116
3.57666
3.74504
3.79055
3.79621
3.79844
3.7999
3.79901
3.79654
3.7934
3.78994
3.7863
3.78263
3.77905
3.77566
3.77246
3.76947
3.76667
3.76406
3.76161
3.75932
3.75718
3.75519
3.75333
3.7516
3.74998
3.74848
3.74708
3.74578
3.74457
3.74344
3.74238
3.74139
3.74046
3.7396
3.73878
3.73802
3.73732
3.73666
3.73605
3.73547
3.73493
3.73443
3.73397
3.73353
3.73312
3.73274
3.73239
3.73206
3.73175
3.73145
3.73118
3.73093
3.73069
3.73047
3.73026
3.73006
3.72987
3.7297
3.72954
3.72939
3.72925
3.72912
3.72899
3.72887
3.72876
3.72865
3.72855
3.72846
3.72838
3.7283
3.72823
3.72815
3.72808
3.72801
3.72795
3.7279
3.72785
3.7278
3.72776
3.72772
3.72768
3.72765
3.72762
3.72759
3.72756
3.72753
3.7275
3.72747
3.72746
3.72744
3.72742
3.7274
3.72739
3.72737
3.72736
3.72735
3.72734
3.72733
3.72732
3.72732
3.58199
3.7614
3.81812
3.83418
3.84606
3.8557
3.86191
3.86546
3.86736
3.86811
3.86796
3.86715
3.86591
3.86441
3.86276
3.86103
3.85929
3.85755
3.85584
3.85417
3.85257
3.85103
3.84956
3.84817
3.84685
3.8456
3.84444
3.84335
3.84233
3.84137
3.84047
3.83962
3.83883
3.83808
3.83739
3.83673
3.83613
3.83556
3.83503
3.83453
3.83407
3.83364
3.83324
3.83287
3.83252
3.83219
3.83189
3.8316
3.83133
3.83108
3.83085
3.83063
3.83042
3.83023
3.83005
3.82988
3.82972
3.82958
3.82944
3.82931
3.82919
3.82907
3.82896
3.82886
3.82876
3.82867
3.82859
3.82851
3.82844
3.82837
3.82831
3.82824
3.82818
3.82812
3.82807
3.82802
3.82798
3.82794
3.82791
3.82787
3.82784
3.82781
3.82778
3.82776
3.82773
3.8277
3.82768
3.82766
3.82765
3.82763
3.82762
3.8276
3.82759
3.82757
3.82756
3.82755
3.82754
3.82754
3.82753
3.82754
3.58198
3.76149
3.81816
3.83419
3.84618
3.85576
3.86195
3.86547
3.86735
3.86809
3.86794
3.86715
3.86591
3.86442
3.86277
3.86104
3.85928
3.85754
3.85583
3.85417
3.85256
3.85103
3.84956
3.84817
3.84685
3.8456
3.84444
3.84335
3.84232
3.84136
3.84046
3.83962
3.83882
3.83808
3.83738
3.83673
3.83612
3.83556
3.83503
3.83453
3.83407
3.83364
3.83324
3.83286
3.83251
3.83219
3.83188
3.8316
3.83133
3.83108
3.83084
3.83063
3.83042
3.83023
3.83005
3.82988
3.82972
3.82958
3.82944
3.82931
3.82919
3.82907
3.82896
3.82886
3.82876
3.82867
3.82859
3.82851
3.82844
3.82837
3.82831
3.82824
3.82818
3.82812
3.82807
3.82802
3.82798
3.82794
3.82791
3.82787
3.82784
3.82781
3.82778
3.82776
3.82773
3.8277
3.82768
3.82766
3.82764
3.82763
3.82762
3.8276
3.82759
3.82757
3.82756
3.82755
3.82754
3.82754
3.82753
3.82754
3.57665
3.74534
3.79067
3.7962
3.79843
3.79994
3.79906
3.79654
3.79335
3.78987
3.78625
3.78261
3.77906
3.77567
3.77247
3.76947
3.76666
3.76404
3.76159
3.7593
3.75717
3.75518
3.75333
3.7516
3.74998
3.74848
3.74708
3.74578
3.74456
3.74343
3.74237
3.74139
3.74046
3.73959
3.73878
3.73802
3.73731
3.73666
3.73604
3.73546
3.73493
3.73443
3.73396
3.73353
3.73312
3.73274
3.73239
3.73205
3.73174
3.73145
3.73118
3.73092
3.73068
3.73046
3.73025
3.73005
3.72987
3.7297
3.72954
3.72939
3.72925
3.72911
3.72898
3.72887
3.72875
3.72865
3.72855
3.72846
3.72838
3.7283
3.72822
3.72815
3.72807
3.72801
3.72795
3.72789
3.72784
3.7278
3.72776
3.72772
3.72768