/*--------------------------------*- C++ -*----------------------------------*\
  =========                 |
  \\      /  F ield         | OpenFOAM: The Open Source CFD Toolbox
   \\    /   O peration     | Website:  https://openfoam.org
    \\  /    A nd           | Version:  12
     \\/     M anipulation  |
\*---------------------------------------------------------------------------*/
FoamFile
{
    format      ascii;
    class       surfaceScalarField;
    location    "100";
    object      phi;
}
// * * * * * * * * * * * * * * * * * * * * * * * * * * * * * * * * * * * * * //

dimensions      [0 3 -1 0 0 0 0];

internalField   nonuniform List<scalar> 
27900
(
2.68431e-05
2.68431e-05
6.93907e-05
3.18647e-05
1.005e-06
0.00011705
1.00501e-06
3.18646e-05
0.00011705
5.38662e-06
5.3866e-06
5.86175e-05
2.49815e-05
-3.31865e-06
0.000133279
2.21058e-05
2.21057e-05
0.00028359
7.43774e-06
1.32481e-06
0.000113675
-3.31863e-06
2.49815e-05
0.000133279
1.32483e-06
7.43772e-06
0.000113675
2.03772e-06
2.03776e-06
5.4542e-05
1.32336e-05
-2.97671e-06
0.000137802
1.92317e-05
1.84937e-06
0.000323498
6.53915e-06
-1.01533e-06
0.000135193
1.84939e-06
1.92317e-05
0.000323498
1.06321e-05
1.0632e-05
0.000264976
3.63246e-06
1.94121e-06
0.000110139
-2.9767e-06
1.32336e-05
0.000137802
-1.01531e-06
6.53911e-06
0.000135193
1.94119e-06
3.63251e-06
0.000110139
9.17501e-07
9.17341e-07
5.27071e-05
9.29791e-11
-2.35587e-06
0.000138666
1.02566e-05
-1.06138e-06
0.000332852
3.7048e-06
-1.50273e-06
0.000142139
1.2126e-05
1.2126e-05
0.000450035
1.10118e-05
1.59938e-06
0.000320504
3.64066e-06
5.01067e-07
0.000134683
-1.06136e-06
1.02565e-05
0.000332852
1.59941e-06
1.10118e-05
0.000320504
8.06274e-06
8.06274e-06
0.000252733
2.00428e-06
1.78298e-06
0.000107269
-2.35586e-06
7.51848e-11
0.000138666
-1.50271e-06
3.70474e-06
0.000142139
5.01067e-07
3.6407e-06
0.000134683
1.78307e-06
2.00405e-06
0.000107269
4.60628e-07
4.60958e-07
5.17856e-05
-1.32334e-05
-2.35586e-06
0.000138666
7.62431e-11
-9.03882e-07
0.000334596
1.06494e-10
-1.45618e-06
0.000143827
7.19091e-06
1.89716e-06
0.000472565
6.37973e-06
-4.93897e-07
0.000336475
2.223e-06
1.99695e-08
0.000143536
1.89718e-06
7.19089e-06
0.000472565
6.5669e-06
6.56687e-06
0.0004401
8.96178e-06
2.619e-06
0.000317487
2.29102e-06
7.69172e-07
0.000133627
-9.03866e-07
6.04595e-11
0.000334596
-4.93874e-07
6.37969e-06
0.000336475
2.61901e-06
8.96177e-06
0.000317487
5.98386e-06
5.9838e-06
0.000244331
1.06749e-06
1.43112e-06
0.000105231
-2.35585e-06
-1.32334e-05
0.000138666
-1.45617e-06
3.46449e-11
0.000143827
1.99808e-08
2.22303e-06
0.000143536
7.69157e-07
2.29085e-06
0.000133627
1.43095e-06
1.06798e-06
0.000105231
3.36784e-07
3.36601e-07
5.11122e-05
-2.49814e-05
-2.97668e-06
0.000137802
-1.02564e-05
-9.0387e-07
0.000334596
-3.70463e-06
-1.45615e-06
0.000143827
6.272e-11
7.90382e-07
0.000476085
9.81189e-11
-5.37928e-07
0.000340058
1.71135e-11
2.3164e-08
0.000146027
5.16618e-06
5.16616e-06
0.000550928
4.62236e-06
1.18072e-06
0.000472835
5.41741e-06
6.53248e-07
0.000339386
1.48938e-06
2.15351e-07
0.000144123
7.904e-07
4.83475e-11
0.000476085
1.18075e-06
4.62233e-06
0.000472835
6.13258e-06
6.13256e-06
0.000433073
7.08522e-06
2.75441e-06
0.0003144
1.36941e-06
7.54223e-07
0.000132571
-9.03859e-07
-1.02564e-05
0.000334596
-5.3791e-07
5.46181e-11
0.000340058
6.53256e-07
5.41739e-06
0.000339386
2.75445e-06
7.08519e-06
0.0003144
4.32895e-06
4.32909e-06
0.000238536
6.84868e-07
1.17445e-06
0.000103708
-2.97668e-06
-2.49814e-05
0.000137802
-1.45614e-06
-3.7047e-06
0.000143827
2.31787e-08
2.6736e-11
0.000146027
2.15251e-07
1.48937e-06
0.000144123
7.54251e-07
1.3698e-06
0.000132571
1.1745e-06
6.84601e-07
0.000103708
2.84078e-07
2.83919e-07
5.05441e-05
-3.18645e-05
-3.31861e-06
0.000133279
-1.92316e-05
-1.06134e-06
0.000332852
-6.539e-06
-1.50272e-06
0.000142139
-7.19079e-06
7.90391e-07
0.000476085
-6.37952e-06
-5.37925e-07
0.000340058
-2.22293e-06
2.31148e-08
0.000146027
5.97029e-11
2.18909e-06
0.000561233
8.26491e-11
7.75952e-07
0.000479393
8.22185e-11
4.6865e-07
0.00034503
-5.05385e-11
1.33708e-07
0.000147383
2.18911e-06
4.50089e-11
0.000561233
2.58097e-06
2.58094e-06
0.000548128
4.45117e-06
1.92128e-06
0.000473248
4.48244e-06
9.20385e-07
0.000341284
9.48942e-07
1.92715e-07
0.000144351
7.90405e-07
-7.1908e-06
0.000476085
7.75975e-07
4.64908e-11
0.000479393
1.9213e-06
4.45115e-06
0.000473248
5.42163e-06
5.42159e-06
0.000427739
5.40863e-06
2.52138e-06
0.000311553
9.1203e-07
7.55954e-07
0.000131588
-1.06133e-06
-1.92316e-05
0.000332852
-5.37916e-07
-6.37956e-06
0.000340058
4.68659e-07
5.23827e-11
0.00034503
9.20391e-07
4.48244e-06
0.000341284
2.5213e-06
5.40872e-06
0.000311553
3.21736e-06
3.2173e-06
0.00023445
5.04866e-07
9.74218e-07
0.000102513
-3.31861e-06
-3.18645e-05
0.000133279
-1.50273e-06
-6.53906e-06
0.000142139
2.31339e-08
-2.22294e-06
0.000146027
1.33584e-07
1.5415e-10
0.000147383
1.9291e-07
9.48973e-07
0.000144351
7.55917e-07
9.11825e-07
0.000131588
9.7432e-07
5.04628e-07
0.000102513
2.37522e-07
2.37695e-07
5.0069e-05
-2.68431e-05
1.00504e-06
0.00011705
-2.21057e-05
1.84941e-06
0.000323498
-7.43766e-06
-1.01531e-06
0.000135193
-1.21259e-05
1.89718e-06
0.000472565
-1.10116e-05
-4.93893e-07
0.000336475
-3.64054e-06
1.99377e-08
0.000143536
-5.16606e-06
2.18909e-06
0.000561233
-4.6222e-06
7.75945e-07
0.000479393
-5.41724e-06
4.68607e-07
0.00034503
-1.48956e-06
1.33789e-07
0.000147383
6.01784e-11
4.42653e-11
0.000590803
8.48088e-11
1.33626e-06
0.000563254
3.93783e-11
1.38106e-06
0.000482932
1.34029e-11
5.95851e-07
0.00034905
-1.85643e-10
3.8432e-08
0.000148294
2.18911e-06
-5.16607e-06
0.000561233
1.33629e-06
5.07724e-11
0.000563254
2.57219e-06
2.57216e-06
0.000546826
4.04497e-06
2.09488e-06
0.00047345
3.57159e-06
9.12469e-07
0.000342401
6.58328e-07
2.43983e-07
0.00014436
1.8972e-06
-1.21259e-05
0.000472565
7.75961e-07
-4.62223e-06
0.000479393
1.38108e-06
1.44193e-11
0.000482932
2.0949e-06
4.04496e-06
0.00047345
4.60508e-06
4.60515e-06
0.000423571
4.15757e-06
2.29182e-06
0.000309077
6.54414e-07
7.44874e-07
0.000130694
1.84942e-06
-2.21057e-05
0.000323498
-4.93895e-07
-1.10117e-05
0.000336475
4.68619e-07
-5.41727e-06
0.00034503
5.95845e-07
6.23495e-11
0.00034905
9.12458e-07
3.57159e-06
0.000342401
2.29185e-06
4.15754e-06
0.000309077
2.46047e-06
2.46041e-06
0.000231477
3.93428e-07
8.02911e-07
0.000101554
1.00504e-06
-2.68431e-05
0.00011705
-1.01532e-06
-7.43769e-06
0.000135193
1.99494e-08
-3.64057e-06
0.000143536
1.33701e-07
-1.48918e-06
0.000147383
3.86839e-08
-6.19346e-10
0.000148294
2.43881e-07
6.58327e-07
0.00014436
7.44855e-07
6.5425e-07
0.000130694
8.02853e-07
3.93679e-07
0.000101554
1.98865e-07
1.98998e-07
4.96711e-05
2.68432e-05
6.93907e-05
-1.00495e-06
2.21058e-05
0.00028359
-5.38661e-06
1.32485e-06
0.000113675
-1.8493e-06
1.2126e-05
0.000450035
-1.0632e-05
1.5994e-06
0.000320504
-3.63226e-06
5.01009e-07
0.000134683
-1.89708e-06
5.16617e-06
0.000550928
-6.56676e-06
1.18072e-06
0.000472835
-8.96163e-06
6.53277e-07
0.000339386
-2.29151e-06
2.15642e-07
0.000144123
-2.18899e-06
4.20988e-11
0.000590803
-2.58083e-06
1.33626e-06
0.000563254
-4.45106e-06
1.38099e-06
0.000482932
-4.48249e-06
5.95969e-07
0.00034905
-9.4904e-07
3.81377e-08
0.000148294
5.80143e-11
-2.189e-06
0.000590803
8.2393e-11
4.80224e-11
0.000593476
1.01217e-11
1.55558e-06
0.000565652
8.57373e-11
1.4415e-06
0.000486131
-5.59957e-11
5.00738e-07
0.000352159
1.21087e-11
5.2747e-08
0.000148899
5.16618e-06
-1.89708e-06
0.000550928
1.33629e-06
-2.58086e-06
0.000563254
1.5556e-06
-9.85012e-12
0.000565652
2.39663e-06
2.39663e-06
0.000546222
3.51735e-06
2.00966e-06
0.000473441
2.84433e-06
9.46944e-07
0.000343011
4.7981e-07
3.05795e-07
0.000144229
1.2126e-05
-1.84929e-06
0.000450035
1.18073e-06
-6.56678e-06
0.000472835
1.38101e-06
-4.45108e-06
0.000482932
1.44152e-06
1.22427e-10
0.000486131
2.0096e-06
3.51735e-06
0.000473441
3.92618e-06
3.92615e-06
0.000420302
3.23073e-06
2.0739e-06
0.000306978
4.84878e-07
7.04292e-07
0.000129898
2.21058e-05
-1.00494e-06
0.00028359
1.5994e-06
-1.0632e-05
0.000320504
6.53291e-07
-8.96165e-06
0.000339386
5.95988e-07
-4.48239e-06
0.00034905
5.00753e-07
-1.48971e-10
0.000352159
9.46956e-07
2.84434e-06
0.000343011
2.07392e-06
3.23072e-06
0.000306978
1.92204e-06
1.92211e-06
0.000229239
3.20744e-07
6.6118e-07
0.000100771
2.68432e-05
6.93907e-05
1.32483e-06
-5.38662e-06
0.000113675
5.01006e-07
-3.63229e-06
0.000134683
2.15665e-07
-2.29106e-06
0.000144123
3.83122e-08
-9.49845e-07
0.000148294
5.26299e-08
2.59927e-10
0.000148899
3.05664e-07
4.7987e-07
0.000144229
7.04317e-07
4.85075e-07
0.000129898
6.61088e-07
3.20951e-07
0.000100771
1.69322e-07
1.69246e-07
4.93325e-05
3.18647e-05
0.00011705
5.38658e-06
5.86175e-05
3.31869e-06
1.92318e-05
0.000323498
-1.32482e-06
1.06321e-05
0.000264976
-2.03758e-06
1.9413e-06
0.000110139
1.06145e-06
7.19091e-06
0.000472565
-1.5993e-06
6.56688e-06
0.0004401
-8.06266e-06
2.61903e-06
0.000317487
-2.00495e-06
7.69299e-07
0.000133627
-7.90295e-07
4.0895e-11
0.000561234
-1.18062e-06
2.58094e-06
0.000548128
-6.13247e-06
1.92133e-06
0.000473248
-7.08533e-06
9.20656e-07
0.000341284
-1.36896e-06
1.92129e-07
0.000144351
-2.18899e-06
-2.18901e-06
0.000590803
-1.33614e-06
5.06321e-11
0.000593476
-2.57212e-06
1.55546e-06
0.000565652
-4.04492e-06
1.4417e-06
0.000486131
-3.5716e-06
5.00311e-07
0.00035216
-6.58451e-07
5.29282e-08
0.000148899
5.55637e-11
-7.90299e-07
0.000561233
8.49376e-11
-1.33617e-06
0.000593476
1.08274e-11
-6.68829e-12
0.000596587
9.24976e-11
1.5194e-06
0.00056797
-1.43206e-11
1.31302e-06
0.000488836
-1.08877e-10
4.99106e-07
0.000354557
-2.02986e-10
1.01267e-07
0.000149278
7.19092e-06
1.06146e-06
0.000472565
2.58096e-06
-1.18064e-06
0.000548128
1.55549e-06
-2.57213e-06
0.000565652
1.5194e-06
1.26295e-10
0.00056797
2.14369e-06
2.1437e-06
0.000545954
3.04025e-06
1.92835e-06
0.000473345
2.2706e-06
9.85043e-07
0.000343292
3.55628e-07
3.42503e-07
0.000144016
1.92318e-05
3.3187e-06
0.000323498
6.56689e-06
-1.5993e-06
0.0004401
1.92135e-06
-6.1325e-06
0.000473248
1.44173e-06
-4.04484e-06
0.000486131
1.31296e-06
-8.94331e-11
0.000488836
1.9284e-06
3.04024e-06
0.000473345
3.3604e-06
3.3604e-06
0.000417729
2.53431e-06
1.85809e-06
0.000305212
3.71747e-07
6.47786e-07
0.000129199
3.18647e-05
0.00011705
1.06321e-05
-1.32481e-06
0.000264976
2.61904e-06
-8.06268e-06
0.000317487
9.20729e-07
-7.08523e-06
0.000341284
5.00269e-07
-3.57179e-06
0.00035216
4.99121e-07
-6.85118e-11
0.000354557
9.85012e-07
2.27065e-06
0.000343292
1.85806e-06
2.53436e-06
0.000305212
1.53188e-06
1.53196e-06
0.000227497
2.72903e-07
5.48346e-07
0.000100119
5.38657e-06
5.86175e-05
1.94128e-06
-2.03761e-06
0.000110139
7.69436e-07
-2.00459e-06
0.000133627
1.92103e-07
-1.36988e-06
0.000144351
5.28521e-08
-6.58021e-07
0.000148899
1.01097e-07
1.41058e-10
0.000149278
3.42585e-07
3.55649e-07
0.000144016
6.47795e-07
3.71896e-07
0.000129199
5.48345e-07
2.72807e-07
0.000100119
1.46385e-07
1.46249e-07
4.90399e-05
2.49816e-05
0.000133279
7.43764e-06
0.000113675
2.0379e-06
5.4542e-05
2.97676e-06
1.02566e-05
0.000332852
1.01539e-06
1.10118e-05
0.000320504
-1.94114e-06
8.06279e-06
0.000252733
-9.17924e-07
1.78265e-06
0.000107269
9.03969e-07
4.30331e-11
0.000476085
4.93982e-07
4.62233e-06
0.000472835
-2.61893e-06
6.13262e-06
0.000433073
-5.98393e-06
2.75442e-06
0.0003144
-1.06667e-06
7.53855e-07
0.000132571
-7.90301e-07
-5.16609e-06
0.000561234
-7.75843e-07
4.19884e-11
0.000563254
-1.92123e-06
2.57221e-06
0.000546826
-5.4217e-06
2.0952e-06
0.00047345
-5.40849e-06
9.1165e-07
0.000342401
-9.12443e-07
2.44368e-07
0.00014436
-5.16607e-06
-7.90308e-07
0.000561233
-1.33614e-06
-1.33617e-06
0.000593476
-1.55564e-06
-5.31205e-11
0.000596587
-2.39642e-06
1.51953e-06
0.00056797
-3.5174e-06
1.31262e-06
0.000488836
-2.84455e-06
4.99409e-07
0.000354557
-4.80302e-07
1.01362e-07
0.000149278
5.72958e-11
9.03969e-07
0.000476085
7.59522e-11
-7.75864e-07
0.000563254
-3.57402e-11
-1.55566e-06
0.000596587
2.75252e-10
3.07196e-10
0.000599625
-2.15735e-10
1.38169e-06
0.000570046
-7.2867e-11
1.24263e-06
0.000491133
-1.22038e-10
5.32504e-07
0.000356397
8.08795e-11
1.40767e-07
0.000149493
1.02566e-05
2.97676e-06
0.000332852
4.62235e-06
4.93989e-07
0.000472835
2.57223e-06
-1.92125e-06
0.000546826
1.51953e-06
-2.39635e-06
0.00056797
1.38168e-06
-2.92291e-10
0.000570046
1.9363e-06
1.93628e-06
0.000545938
2.61947e-06
1.84194e-06
0.000473229
1.81589e-06
9.97986e-07
0.000343355
2.68729e-07
3.58193e-07
0.000143761
2.49816e-05
0.000133279
1.10118e-05
1.01541e-06
0.000320504
6.13264e-06
-2.61896e-06
0.000433073
2.09526e-06
-5.42163e-06
0.00047345
1.31253e-06
-3.51754e-06
0.000488836
1.2427e-06
-4.20986e-11
0.000491133
1.84193e-06
2.61951e-06
0.000473229
2.87821e-06
2.87825e-06
0.000415689
2.01087e-06
1.65375e-06
0.000303727
2.9677e-07
5.87546e-07
0.000128588
7.43764e-06
0.000113675
8.06279e-06
-1.94116e-06
0.000252733
2.75454e-06
-5.98384e-06
0.0003144
9.11507e-07
-5.40869e-06
0.000342401
4.9945e-07
-2.84449e-06
0.000354557
5.32455e-07
-1.42178e-11
0.000356397
9.97967e-07
1.81589e-06
0.000343355
1.65372e-06
2.01091e-06
0.000303727
1.24591e-06
1.24591e-06
0.000226102
2.3949e-07
4.59531e-07
9.95668e-05
2.03787e-06
5.4542e-05
1.78284e-06
-9.17715e-07
0.000107269
7.53635e-07
-1.06741e-06
0.000132571
2.44368e-07
-9.11965e-07
0.00014436
1.0125e-07
-4.79741e-07
0.000149278
1.40861e-07
-1.13487e-10
0.000149493
3.58296e-07
2.68689e-07
0.000143761
5.87522e-07
2.96697e-07
0.000128588
4.59603e-07
2.39284e-07
9.95668e-05
1.27917e-07
1.279e-07
4.8784e-05
1.32336e-05
0.000137802
6.53905e-06
0.000135193
3.63264e-06
0.000110139
9.16886e-07
5.27072e-05
2.35591e-06
5.28703e-11
0.000334596
1.5028e-06
6.37966e-06
0.000336475
-5.01054e-07
8.96184e-06
0.000317487
-1.78318e-06
5.98347e-06
0.000244331
-4.6005e-07
1.43141e-06
0.000105231
9.03961e-07
-7.19082e-06
0.000476085
5.38017e-07
3.82233e-11
0.000479393
-6.53237e-07
4.45121e-06
0.000473248
-2.75452e-06
5.42153e-06
0.000427739
-4.32873e-06
2.52092e-06
0.000311553
-6.85411e-07
7.56213e-07
0.000131588
-1.89709e-06
-1.8971e-06
0.000550928
-7.7584e-07
-2.58086e-06
0.000563254
-1.38111e-06
2.15182e-11
0.000565652
-2.09468e-06
2.39684e-06
0.000546223
-4.60513e-06
2.00884e-06
0.000473441
-4.15782e-06
9.47598e-07
0.000343011
-6.5507e-07
3.0597e-07
0.000144229
-7.19081e-06
9.03957e-07
0.000476085
-2.58082e-06
-7.75867e-07
0.000563254
-1.55562e-06
-1.55563e-06
0.000596587
-1.51883e-06
3.46587e-10
0.000599625
-2.1442e-06
1.38143e-06
0.000570046
-3.0403e-06
1.2429e-06
0.000491133
-2.2709e-06
5.32669e-07
0.000356397
-3.55366e-07
1.40644e-07
0.000149493
6.79177e-11
2.35592e-06
0.000334596
7.52402e-11
5.38022e-07
0.000479393
4.1071e-11
-1.38113e-06
0.000565652
3.15549e-10
-1.51878e-06
0.000599625
-4.65649e-10
-5.42261e-10
0.00060239
9.70786e-11
1.27761e-06
0.000571947
-1.43235e-10
1.1967e-06
0.000493089
-3.16949e-11
5.62884e-07
0.000357791
1.7341e-10
1.694e-07
0.000149592
1.32336e-05
0.000137802
6.37969e-06
1.50282e-06
0.000336475
4.45123e-06
-6.53266e-07
0.000473248
2.39686e-06
-2.09463e-06
0.000546223
1.38141e-06
-2.14434e-06
0.000570046
1.27765e-06
1.35792e-10
0.000571947
1.75686e-06
1.7569e-06
0.000546109
2.24876e-06
1.74025e-06
0.000473117
1.4584e-06
9.88663e-07
0.000343277
2.08374e-07
3.60896e-07
0.000143488
6.53907e-06
0.000135193
8.96185e-06
-5.01062e-07
0.000317487
5.42161e-06
-2.7545e-06
0.000427739
2.00872e-06
-4.60525e-06
0.000473441
1.24298e-06
-3.04024e-06
0.000491133
1.19669e-06
-6.66637e-11
0.000493088
1.7402e-06
2.24878e-06
0.000473117
2.46878e-06
2.46881e-06
0.000414059
1.61762e-06
1.46863e-06
0.000302474
2.46264e-07
5.29201e-07
0.000128052
3.63262e-06
0.000110139
5.9836e-06
-1.7831e-06
0.000244331
2.52071e-06
-4.32889e-06
0.000311553
9.47667e-07
-4.15776e-06
0.000343011
5.32665e-07
-2.27074e-06
0.000356397
5.62863e-07
-5.32155e-11
0.000357791
9.88676e-07
1.45839e-06
0.000343277
1.46862e-06
1.61763e-06
0.000302474
1.03273e-06
1.03266e-06
0.000224956
2.14051e-07
3.8938e-07
9.90913e-05
9.17123e-07
5.27072e-05
1.43107e-06
-4.60455e-07
0.000105231
7.56282e-07
-6.85038e-07
0.000131588
3.05996e-07
-6.5446e-07
0.000144229
1.4071e-07
-3.55722e-07
0.000149493
1.69533e-07
-1.05109e-10
0.000149592
3.60871e-07
2.08359e-07
0.000143488
5.29189e-07
2.46104e-07
0.000128052
3.89419e-07
2.14013e-07
9.90913e-05
1.1282e-07
1.12892e-07
4.85583e-05
6.41412e-11
0.000138666
3.70472e-06
0.000142139
3.64083e-06
0.000134684
2.00354e-06
0.000107269
4.61576e-07
5.17856e-05
2.3559e-06
-1.02565e-05
0.000334596
1.45623e-06
2.70046e-11
0.000340058
-2.0078e-08
5.41751e-06
0.000339386
-7.69226e-07
7.08486e-06
0.0003144
-1.43066e-06
4.32935e-06
0.000238536
-3.37192e-07
1.17444e-06
0.000103708
1.06143e-06
-1.21259e-05
0.000472565
5.38025e-07
-4.62226e-06
0.000479393
-4.68645e-07
-1.9606e-11
0.000482932
-9.20185e-07
4.04486e-06
0.00047345
-2.52127e-06
4.60468e-06
0.000423571
-3.21765e-06
2.29234e-06
0.000309077
-5.05508e-07
7.44838e-07
0.000130694
-1.21259e-05
1.06143e-06
0.000472565
-1.18061e-06
-1.18064e-06
0.000548128
-1.381e-06
-2.57224e-06
0.000565652
-1.44103e-06
2.84924e-10
0.000567971
-2.01013e-06
2.14307e-06
0.000545954
-3.92613e-06
1.92902e-06
0.000473345
-3.23109e-06
9.85309e-07
0.000343292
-4.84454e-07
3.42277e-07
0.000144016
-1.02565e-05
2.3559e-06
0.000334596
-4.62221e-06
5.38021e-07
0.000479393
-2.57222e-06
-1.38103e-06
0.000565652
-1.51889e-06
-1.51883e-06
0.000599626
-1.38265e-06
-6.19701e-10
0.00060239
-1.93606e-06
1.27782e-06
0.000571947
-2.61971e-06
1.19684e-06
0.000493088
-1.81595e-06
5.62689e-07
0.000357791
-2.68307e-07
1.69314e-07
0.000149592
8.03478e-11
0.000138666
7.08217e-11
1.45625e-06
0.000340058
5.64764e-12
-4.68676e-07
0.000482932
2.51666e-10
-1.44099e-06
0.000567971
-5.42893e-10
-1.38279e-06
0.00060239
1.93359e-10
2.39234e-10
0.000604945
-2.3516e-11
1.19017e-06
0.00057371
-6.55035e-11
1.15277e-06
0.000494747
2.9867e-11
5.85889e-07
0.000358833
-1.28532e-10
1.90265e-07
0.00014961
3.70476e-06
0.000142139
5.41753e-06
-2.00824e-08
0.000339386
4.04489e-06
-9.20224e-07
0.00047345
2.14304e-06
-2.01022e-06
0.000545954
1.27785e-06
-1.93599e-06
0.000571947
1.19013e-06
4.67405e-11
0.00057371
1.59263e-06
1.59266e-06
0.000546404
1.9267e-06
1.62967e-06
0.000473018
1.17946e-06
9.64592e-07
0.000343112
1.66465e-07
3.55264e-07
0.000143212
3.64082e-06
0.000134684
7.08493e-06
-7.69319e-07
0.0003144
4.60454e-06
-2.52126e-06
0.000423571
1.92909e-06
-3.92611e-06
0.000473345
1.19686e-06
-2.61961e-06
0.000493088
1.1527e-06
-8.41602e-11
0.000494747
1.62965e-06
1.92669e-06
0.000473018
2.12445e-06
2.12446e-06
0.000412747
1.32067e-06
1.30476e-06
0.00030141
2.10851e-07
4.74963e-07
0.00012758
2.00384e-06
0.000107269
4.32911e-06
-1.43078e-06
0.000238536
2.29242e-06
-3.21763e-06
0.000309077
9.85386e-07
-3.23092e-06
0.000343292
5.62653e-07
-1.816e-06
0.000357791
5.85915e-07
-2.479e-11
0.000358833
9.64596e-07
1.17948e-06
0.000343112
1.30478e-06
1.32063e-06
0.00030141
8.70334e-07
8.70297e-07
0.000223994
1.93583e-07
3.33452e-07
9.86771e-05
4.61115e-07
5.17856e-05
1.17456e-06
-3.36997e-07
0.000103708
7.44998e-07
-5.05033e-07
0.000130694
3.42287e-07
-4.84861e-07
0.000144016
1.694e-07
-2.68765e-07
0.000149592
1.90244e-07
-7.88088e-11
0.00014961
3.55184e-07
1.6646e-07
0.000143212
4.7497e-07
2.10827e-07
0.00012758
3.33432e-07
1.93683e-07
9.86771e-05
1.00371e-07
1.0043e-07
4.83576e-05
-1.32335e-05
0.000138666
6.47998e-12
0.000143827
2.22308e-06
0.000143536
2.2903e-06
0.000133628
1.06888e-06
0.000105231
3.36212e-07
5.11122e-05
2.97674e-06
-1.92317e-05
0.000332852
1.4562e-06
-6.3796e-06
0.000340058
-2.32035e-08
1.22853e-10
0.00034503
-2.15074e-07
4.48216e-06
0.000341284
-7.54138e-07
5.4089e-06
0.000311553
-1.17479e-06
3.21746e-06
0.00023445
-2.84439e-07
9.7388e-07
0.000102513
-1.84933e-06
-1.84934e-06
0.000450035
4.94008e-07
-6.56681e-06
0.000472835
-4.68588e-07
-4.45121e-06
0.000482932
-5.95567e-07
2.02256e-10
0.000486131
-9.12869e-07
3.51692e-06
0.000473441
-2.29186e-06
3.92684e-06
0.000420302
-2.46079e-06
2.07385e-06
0.000306978
-3.92927e-07
7.0413e-07
0.000129898
-1.92316e-05
2.97673e-06
0.000332852
-6.56677e-06
4.9399e-07
0.000472835
-1.92134e-06
-1.92136e-06
0.000546826
-1.44112e-06
-2.39631e-06
0.000567971
-1.31397e-06
-5.74026e-10
0.000570046
-1.92809e-06
1.93681e-06
0.000545939
-3.36057e-06
1.84218e-06
0.000473229
-2.53433e-06
9.97566e-07
0.000343355
-3.71223e-07
3.58073e-07
0.000143761
-1.32335e-05
0.000138666
-6.37955e-06
1.45622e-06
0.000340058
-4.45119e-06
-4.68615e-07
0.000482932
-2.39639e-06
-1.44106e-06
0.000567971
-1.38252e-06
-1.38268e-06
0.00060239
-1.27721e-06
2.90331e-10
0.000604945
-1.75686e-06
1.19028e-06
0.00057371
-2.24894e-06
1.15258e-06
0.000494747
-1.45829e-06
5.85736e-07
0.000358833
-2.08636e-07
1.90285e-07
0.00014961
7.80677e-11
0.000143827
1.53764e-10
-2.32061e-08
0.00034503
1.60488e-10
-5.95626e-07
0.000486131
-4.963e-10
-1.31404e-06
0.000570045
2.43126e-10
-1.27711e-06
0.000604945
8.43016e-11
1.52836e-10
0.000607325
-1.19341e-10
1.10899e-06
0.000575347
1.65757e-11
1.10866e-06
0.000496151
-2.62405e-11
6.02341e-07
0.0003596
-1.00075e-10
2.04751e-07
0.000149572
2.22307e-06
0.000143537
4.48217e-06
-2.15268e-07
0.000341284
3.51689e-06
-9.12722e-07
0.000473441
1.93683e-06
-1.92807e-06
0.000545939
1.19026e-06
-1.75677e-06
0.00057371
1.10895e-06
-1.46379e-10
0.000575347
1.44158e-06
1.44157e-06
0.00054678
1.6511e-06
1.51773e-06
0.000472938
9.62364e-07
9.30837e-07
0.000342894
1.36785e-07
3.44055e-07
0.000142942
2.29048e-06
0.000133627
5.40878e-06
-7.53951e-07
0.000311553
3.92689e-06
-2.29193e-06
0.000420302
1.84223e-06
-3.36049e-06
0.000473229
1.1525e-06
-2.24898e-06
0.000494747
1.10864e-06
-1.83579e-11
0.000496151
1.51775e-06
1.65111e-06
0.000472938
1.83641e-06
1.83639e-06
0.000411684
1.09412e-06
1.16091e-06
0.000300501
1.85223e-07
4.25709e-07
0.000127163
1.06826e-06
0.000105231
3.21756e-06
-1.17479e-06
0.00023445
2.07398e-06
-2.46066e-06
0.000306978
9.97514e-07
-2.53438e-06
0.000343355
5.85727e-07
-1.45839e-06
0.000358833
6.02355e-07
-4.92003e-12
0.0003596
9.30832e-07
9.62372e-07
0.000342894
1.16093e-06
1.0941e-06
0.000300501
7.43938e-07
7.43962e-07
0.000223173
1.76507e-07
2.88435e-07
9.83125e-05
3.36442e-07
5.11122e-05
9.74108e-07
-2.84186e-07
0.000102513
7.04081e-07
-3.93257e-07
0.000129898
3.58052e-07
-3.71723e-07
0.000143761
1.90264e-07
-2.08539e-07
0.00014961
2.0465e-07
8.80282e-11
0.000149572
3.44023e-07
1.36816e-07
0.000142942
4.25721e-07
1.85303e-07
0.000127163
2.88399e-07
1.76597e-07
9.83125e-05
8.99316e-08
8.99356e-08
4.81777e-05
-2.49815e-05
0.000137802
-3.70473e-06
0.000143827
5.62737e-11
0.000146027
1.48899e-06
0.000144123
1.37083e-06
0.000132571
6.83941e-07
0.000103708
2.83542e-07
5.05442e-05
3.31866e-06
-2.21057e-05
0.000323498
1.50281e-06
-1.10117e-05
0.000336475
-2.31059e-08
-5.41731e-06
0.00034503
-1.33345e-07
-5.69178e-11
0.00034905
-1.93142e-07
3.57167e-06
0.000342401
-7.56021e-07
4.1579e-06
0.000309077
-9.74569e-07
2.46003e-06
0.000231477
-2.37142e-07
8.0296e-07
0.000101555
-2.21057e-05
3.31866e-06
0.000323498
-1.5993e-06
-1.59933e-06
0.0004401
-6.53377e-07
-6.13259e-06
0.000473248
-5.95607e-07
-4.04456e-06
0.000486131
-5.0167e-07
-3.60916e-10
0.000488836
-9.46673e-07
3.04087e-06
0.000473345
-2.07408e-06
3.36037e-06
0.000417729
-1.92195e-06
1.85771e-06
0.000305212
-3.20236e-07
6.47808e-07
0.000129199
-2.49814e-05
0.000137802
-1.10116e-05
1.50281e-06
0.000336475
-6.13257e-06
-6.53399e-07
0.000473248
-2.09479e-06
-2.09471e-06
0.000546223
-1.31376e-06
-2.14416e-06
0.000570045
-1.24213e-06
2.80233e-10
0.000571947
-1.84184e-06
1.75709e-06
0.000546109
-2.87843e-06
1.73979e-06
0.000473117
-2.01068e-06
9.88413e-07
0.000343277
-2.97052e-07
3.6096e-07
0.000143488
-3.70464e-06
0.000143827
-5.41728e-06
-2.31069e-08
0.00034503
-4.04466e-06
-5.95639e-07
0.000486131
-2.14399e-06
-1.31385e-06
0.000570045
-1.27732e-06
-1.27722e-06
0.000604945
-1.18988e-06
1.93708e-10
0.000607325
-1.59294e-06
1.10887e-06
0.000575347
-1.92669e-06
1.10851e-06
0.000496151
-1.17949e-06
6.02382e-07
0.0003596
-1.66716e-07
2.04814e-07
0.000149572
5.26859e-11
0.000146027
-1.12293e-10
-1.33564e-07
0.00034905
-2.75707e-10
-5.01472e-07
0.000488836
2.39771e-10
-1.24209e-06
0.000571947
1.24808e-10
-1.18979e-06
0.000607325
-1.8985e-10
-2.22701e-10
0.000609543
-5.48687e-11
1.03313e-06
0.000576864
8.9058e-12
1.0653e-06
0.000497339
-1.3387e-11
6.12281e-07
0.000360155
1.41074e-11
2.13689e-07
0.000149495
1.48898e-06
0.000144123
3.57166e-06
-1.92746e-07
0.000342401
3.04087e-06
-9.46794e-07
0.000473345
1.75709e-06
-1.8418e-06
0.000546109
1.10883e-06
-1.59301e-06
0.000575347
1.03313e-06
-8.84767e-11
0.000576864
1.30404e-06
1.30403e-06
0.000547207
1.41772e-06
1.4089e-06
0.000472878
7.92954e-07
8.90513e-07
0.000342649
1.15541e-07
3.29396e-07
0.000142683
1.37041e-06
0.000132571
4.15794e-06
-7.5615e-07
0.000309077
3.36044e-06
-2.07408e-06
0.000417729
1.73973e-06
-2.87844e-06
0.000473117
1.10848e-06
-1.92675e-06
0.000496151
1.06534e-06
3.05688e-11
0.000497339
1.40893e-06
1.41773e-06
0.000472878
1.59532e-06
1.59531e-06
0.000410815
9.19242e-07
1.03502e-06
0.000299716
1.66074e-07
3.81682e-07
0.000126791
6.84239e-07
0.000103708
2.46018e-06
-9.74457e-07
0.000231477
1.85765e-06
-1.92197e-06
0.000305212
9.88344e-07
-2.0108e-06
0.000343277
6.02392e-07
-1.17948e-06
0.0003596
6.12271e-07
2.51916e-11
0.000360155
8.90503e-07
7.92952e-07
0.000342649
1.03501e-06
9.19259e-07
0.000299716
6.43711e-07
6.43748e-07
0.000222462
1.61804e-07
2.51764e-07
9.79889e-05
2.83808e-07
5.05442e-05
8.02853e-07
-2.37322e-07
0.000101554
6.4768e-07
-3.20626e-07
0.000129199
3.60938e-07
-2.96935e-07
0.000143488
2.04741e-07
-1.66379e-07
0.000149572
2.13644e-07
1.1702e-10
0.000149495
3.29424e-07
1.1556e-07
0.000142683
3.81688e-07
1.66137e-07
0.000126791
2.51746e-07
1.61816e-07
9.79889e-05
8.10245e-08
8.09909e-08
4.80157e-05
-3.18646e-05
0.000133279
-6.53907e-06
0.000142139
-2.22287e-06
0.000146027
-2.21085e-11
0.000147383
9.49889e-07
0.000144351
9.11047e-07
0.000131588
5.04075e-07
0.000102513
2.38102e-07
5.00689e-05
-1.00499e-06
-1.00499e-06
0.00028359
1.0154e-06
-1.0632e-05
0.000320504
-2.00583e-08
-8.96176e-06
0.000339386
-1.33421e-07
-4.48226e-06
0.00034905
-3.9387e-08
-1.47965e-10
0.000352159
-2.4367e-07
2.84471e-06
0.000343012
-7.44992e-07
3.23038e-06
0.000306978
-8.02647e-07
1.92195e-06
0.000229239
-1.98572e-07
6.61432e-07
0.000100771
-3.18646e-05
0.000133279
-1.0632e-05
1.01538e-06
0.000320504
-2.61902e-06
-2.61904e-06
0.000433073
-9.20303e-07
-5.42136e-06
0.000473451
-5.01433e-07
-3.51755e-06
0.000488836
-4.98471e-07
2.11773e-10
0.000491133
-9.84916e-07
2.61954e-06
0.000473229
-1.85823e-06
2.87777e-06
0.000415689
-1.53167e-06
1.65372e-06
0.000303727
-2.7318e-07
5.87614e-07
0.000128588
-6.53899e-06
0.000142139
-8.96174e-06
-2.00659e-08
0.000339386
-5.42147e-06
-9.20276e-07
0.00047345
-2.00965e-06
-2.00979e-06
0.000545954
-1.24235e-06
-1.93624e-06
0.000571947
-1.19628e-06
1.38812e-10
0.00057371
-1.74062e-06
1.59233e-06
0.000546404
-2.46879e-06
1.62939e-06
0.000473018
-1.61763e-06
9.64731e-07
0.000343112
-2.4661e-07
3.55385e-07
0.000143212
-2.22287e-06
0.000146027
-4.48237e-06
-1.33591e-07
0.00034905
-3.51739e-06
-5.01296e-07
0.000488836
-1.93632e-06
-1.24231e-06
0.000571947
-1.18992e-06
-1.18982e-06
0.000607325
-1.10938e-06
-2.42067e-10
0.000609543
-1.44175e-06
1.03304e-06
0.000576864
-1.65106e-06
1.06536e-06
0.000497339
-9.62412e-07
6.124e-07
0.000360155
-1.36781e-07
2.13712e-07
0.000149495
-2.5056e-10
0.000147383
-4.73988e-11
-3.8931e-08
0.000352159
1.76969e-10
-4.98608e-07
0.000491133
6.75724e-11
-1.19625e-06
0.00057371
-2.07991e-10
-1.10946e-06
0.000609543
-1.49189e-10
-1.83321e-10
0.000611609
2.32583e-11
9.62931e-07
0.00057827
1.30223e-11
1.0228e-06
0.000498347
-1.76717e-11
6.1558e-07
0.000360546
1.09172e-10
2.18223e-07
0.000149392
9.49875e-07
0.000144351
2.8447e-06
-2.43884e-07
0.000343011
2.61953e-06
-9.8501e-07
0.000473229
1.5923e-06
-1.74064e-06
0.000546404
1.03303e-06
-1.4418e-06
0.000576864
9.62943e-07
4.8855e-11
0.00057827
1.17991e-06
1.17991e-06
0.000547665
1.22099e-06
1.30501e-06
0.000472838
6.60249e-07
8.46102e-07
0.000342391
1.00147e-07
3.12867e-07
0.000142436
9.11254e-07
0.000131588
3.23044e-06
-7.45087e-07
0.000306978
2.87773e-06
-1.85818e-06
0.000415689
1.62933e-06
-2.46884e-06
0.000473018
1.06538e-06
-1.65103e-06
0.000497339
1.02283e-06
3.98212e-11
0.000498347
1.30501e-06
1.221e-06
0.000472838
1.39298e-06
1.39299e-06
0.000410099
7.82671e-07
9.25001e-07
0.000299034
1.51194e-07
3.42633e-07
0.000126459
5.04431e-07
0.000102513
1.92187e-06
-8.02653e-07
0.000229239
1.6536e-06
-1.53178e-06
0.000303727
9.64727e-07
-1.61763e-06
0.000343112
6.12409e-07
-9.62343e-07
0.000360155
6.15563e-07
-1.03261e-12
0.000360546
8.46093e-07
6.60254e-07
0.000342391
9.24987e-07
7.82692e-07
0.000299034
5.62811e-07
5.62825e-07
0.00022184
1.48867e-07
2.21512e-07
9.76995e-05
2.379e-07
5.00689e-05
6.61246e-07
-1.98777e-07
0.000100771
5.87594e-07
-2.73079e-07
0.000128588
3.55381e-07
-2.46228e-07
0.000143212
2.13687e-07
-1.36626e-07
0.000149495
2.18254e-07
5.45431e-11
0.000149392
3.12909e-07
1.00127e-07
0.000142436
3.4263e-07
1.51198e-07
0.000126459
2.21519e-07
1.48822e-07
9.76995e-05
7.33581e-08
7.33225e-08
4.7869e-05
-2.68431e-05
0.00011705
-7.43768e-06
0.000135193
-3.64059e-06
0.000143536
-1.48912e-06
0.000147383
-2.26216e-10
0.000148294
6.57688e-07
0.00014436
6.53621e-07
0.000130694
3.9436e-07
0.000101554
1.99303e-07
4.96711e-05
-2.68431e-05
0.00011705
-1.32479e-06
-1.32481e-06
0.000264976
-5.0105e-07
-8.06281e-06
0.000317487
-2.15364e-07
-7.08489e-06
0.000341284
-3.92041e-08
-3.57189e-06
0.000352159
-5.20897e-08
1.33853e-10
0.000354558
-3.05571e-07
2.27043e-06
0.000343292
-7.04366e-07
2.53406e-06
0.000305212
-6.6086e-07
1.53218e-06
0.000227497
-1.69539e-07
5.48367e-07
0.000100119
-7.43761e-06
0.000135193
-8.06279e-06
-5.01063e-07
0.000317487
-2.75439e-06
-2.7543e-06
0.000427739
-9.1236e-07
-4.60511e-06
0.000473441
-4.98693e-07
-3.04048e-06
0.000491133
-5.3201e-07
8.66459e-12
0.000493089
-9.98415e-07
2.2484e-06
0.000473117
-1.65369e-06
2.46873e-06
0.000414059
-1.24596e-06
1.46885e-06
0.000302474
-2.39863e-07
5.29249e-07
0.000128052
-3.6406e-06
0.000143536
-7.08503e-06
-2.15418e-07
0.000341284
-4.60493e-06
-9.12345e-07
0.000473441
-1.92857e-06
-1.92853e-06
0.000545939
-1.19637e-06
-1.75677e-06