/*--------------------------------*- C++ -*----------------------------------*\
  =========                 |
  \\      /  F ield         | OpenFOAM: The Open Source CFD Toolbox
   \\    /   O peration     | Website:  https://openfoam.org
    \\  /    A nd           | Version:  12
     \\/     M anipulation  |
\*---------------------------------------------------------------------------*/
FoamFile
{
    format      ascii;
    class       volVectorField;
    location    "100";
    object      U;
}
// * * * * * * * * * * * * * * * * * * * * * * * * * * * * * * * * * * * * * //

dimensions      [0 1 -1 0 0 0 0];

internalField   nonuniform List<vector> 
10000
(
(0.0139132 0.0139132 0.699812)
(0.0298373 0.00308425 1.11185)
(0.00308426 0.0298373 1.11185)
(0.00228312 0.00228312 0.609229)
(0.029984 -0.00214288 1.24591)
(0.0116733 0.0116733 2.89393)
(0.00796951 -0.000126266 1.14898)
(-0.00214287 0.029984 1.24591)
(-0.000126259 0.0079695 1.14898)
(0.000525151 0.000525178 0.563858)
(0.0198969 -0.00261845 1.27903)
(0.0208395 -0.000112319 3.19978)
(0.00847979 -0.00107133 1.34421)
(-0.000112301 0.0208395 3.19978)
(0.00613478 0.00613476 2.71707)
(0.00330761 6.04235e-05 1.1239)
(-0.00261844 0.0198969 1.27903)
(-0.00107132 0.00847976 1.34421)
(6.04035e-05 0.00330766 1.1239)
(0.00011534 0.000115246 0.534396)
(0.0068754 -0.00231169 1.28297)
(0.0156889 -0.00192466 3.26131)
(0.00564272 -0.00103789 1.40248)
(0.00719254 0.00719252 4.51868)
(0.0132948 -0.000888549 3.21372)
(0.00428792 -9.13483e-06 1.3574)
(-0.00192465 0.0156889 3.26131)
(-0.000888529 0.0132947 3.21372)
(0.00486204 0.00486204 2.58163)
(0.00160965 0.000159654 1.08623)
(-0.00231169 0.00687538 1.28297)
(-0.00103787 0.00564267 1.40248)
(-9.13336e-06 0.00428797 1.3574)
(0.000159733 0.00160945 1.08623)
(2.30659e-05 2.32648e-05 0.52118)
(-0.00687521 -0.00231168 1.28297)
(0.00541664 -0.00143858 3.27074)
(0.00196768 -0.000941292 1.41466)
(0.00991699 0.000757116 4.68678)
(0.00991757 -0.00176084 3.34086)
(0.0032001 2.96723e-05 1.43679)
(0.000757135 0.00991697 4.68678)
(0.00510382 0.00510379 4.43629)
(0.0102995 0.000563885 3.19471)
(0.00256003 0.000147638 1.34337)
(-0.00143857 0.00541662 3.27074)
(-0.00176082 0.00991753 3.34086)
(0.000563887 0.0102995 3.19471)
(0.00376631 0.00376626 2.47887)
(0.000789633 0.000190195 1.06056)
(-0.00231168 -0.00687522 1.28297)
(-0.00094128 0.00196762 1.41466)
(2.96854e-05 0.00320013 1.43679)
(0.000147621 0.00255982 1.34337)
(0.00019003 0.00079006 1.06056)
(4.26087e-05 4.24853e-05 0.513999)
(-0.0198967 -0.00261843 1.27903)
(-0.00541649 -0.00143857 3.27074)
(-0.00196749 -0.000941254 1.41466)
(0.00393772 3.57095e-05 4.7081)
(0.00341306 -0.00146789 3.36629)
(0.00118463 6.31875e-05 1.45772)
(0.00374981 0.00374979 5.49415)
(0.00733297 0.000325256 4.72052)
(0.00804417 -0.000258114 3.38609)
(0.00212949 9.28465e-05 1.44108)
(3.57263e-05 0.00393771 4.7081)
(0.00032528 0.00733294 4.72052)
(0.00512667 0.00512666 4.36413)
(0.00785596 0.00113238 3.16033)
(0.00148814 0.00014175 1.33052)
(-0.00143856 -0.0054165 3.27074)
(-0.00146788 0.00341301 3.36629)
(-0.000258109 0.00804415 3.38609)
(0.00113241 0.00785591 3.16032)
(0.00276719 0.0027673 2.40889)
(0.000505403 0.000229963 1.04353)
(-0.00261843 -0.0198967 1.27903)
(-0.000941249 -0.00196756 1.41466)
(6.32043e-05 0.00118465 1.45772)
(9.27465e-05 0.00212939 1.44108)
(0.00014173 0.00148859 1.33052)
(0.000230055 0.000505182 1.04353)
(5.4264e-05 5.41758e-05 0.50806)
(-0.0299839 -0.00214285 1.24591)
(-0.0156888 -0.00192463 3.26131)
(-0.00564255 -0.00103786 1.40248)
(-0.0039376 3.57194e-05 4.7081)
(-0.00341285 -0.00146788 3.36629)
(-0.00118458 6.30822e-05 1.45772)
(0.00264354 0.00166187 5.57052)
(0.00280711 8.02754e-05 4.77002)
(0.00288152 -0.000198465 3.43179)
(0.000824644 8.29259e-05 1.47006)
(0.00166188 0.00264353 5.57052)
(0.00281565 0.00281562 5.48515)
(0.00665572 0.0012224 4.73409)
(0.00653718 0.000242054 3.4069)
(0.00136047 2.84548e-05 1.44271)
(3.57327e-05 -0.00393761 4.7081)
(8.02956e-05 0.00280707 4.77002)
(0.00122241 0.00665571 4.73409)
(0.00471622 0.00471617 4.30176)
(0.00581149 0.00121527 3.12866)
(0.000969949 0.000170643 1.3204)
(-0.00192463 -0.0156888 3.26131)
(-0.00146788 -0.00341289 3.36629)
(-0.00019846 0.00288149 3.43179)
(0.000242053 0.00653714 3.4069)
(0.00121522 0.00581159 3.12866)
(0.00209487 0.00209484 2.36139)
(0.000392446 0.000236912 1.03045)
(-0.00214285 -0.0299839 1.24591)
(-0.00103787 -0.00564263 1.40248)
(6.31041e-05 -0.00118458 1.45772)
(8.28003e-05 0.000824743 1.47006)
(2.85871e-05 0.00136069 1.44271)
(0.000170703 0.000969737 1.3204)
(0.000236999 0.000392223 1.03045)
(5.18448e-05 5.19569e-05 0.502891)
(-0.0298372 0.00308428 1.11185)
(-0.0208394 -0.000112275 3.19978)
(-0.00847967 -0.00107131 1.34421)
(-0.00991687 0.000757142 4.68678)
(-0.00991738 -0.00176083 3.34086)
(-0.0032 2.95021e-05 1.43679)
(-0.00264342 0.00166187 5.57052)
(-0.00280695 8.02745e-05 4.77002)
(-0.00288134 -0.00019844 3.43179)
(-0.000824764 8.30703e-05 1.47006)
(0.00120441 0.0012044 5.86463)
(0.00212503 0.00155259 5.61551)
(0.00257367 0.000889718 4.81534)
(0.00244385 0.000125088 3.47415)
(0.000548118 -1.45153e-05 1.47894)
(0.00166189 -0.00264344 5.57052)
(0.00155261 0.00212499 5.61551)
(0.00296699 0.00296698 5.47531)
(0.00588416 0.00150575 4.73518)
(0.00516035 0.000334749 3.41974)
(0.000943435 4.01629e-05 1.44381)
(0.000757153 -0.00991688 4.68678)
(8.02871e-05 -0.00280699 4.77002)
(0.00088973 0.00257365 4.81534)
(0.00150577 0.00588412 4.73518)
(0.0040721 0.00407214 4.25383)
(0.00434056 0.00122502 3.10202)
(0.000692609 0.000194062 1.31119)
(-0.00011227 -0.0208394 3.19978)
(-0.00176083 -0.00991741 3.34086)
(-0.000198433 -0.00288138 3.43179)
(0.000125076 0.00244387 3.47414)
(0.000334751 0.00516039 3.41974)
(0.00122501 0.00434057 3.10202)
(0.00164586 0.00164579 2.32745)
(0.00032097 0.000215299 1.01988)
(0.00308428 -0.0298372 1.11185)
(-0.00107133 -0.00847972 1.34421)
(2.95185e-05 -0.00320002 1.43679)
(8.2977e-05 -0.000824461 1.47006)
(-1.43272e-05 0.000547916 1.47894)
(4.01917e-05 0.000943351 1.44381)
(0.000194039 0.000692377 1.31119)
(0.000215209 0.000321185 1.01988)
(4.6741e-05 4.68125e-05 0.498558)
(-0.0139132 0.0139132 0.699812)
(-0.0116732 0.0116733 2.89393)
(-0.00796947 -0.000126241 1.14898)
(-0.00719244 0.00719255 4.51868)
(-0.0132946 -0.000888515 3.21372)
(-0.00428775 -9.25843e-06 1.3574)
(-0.0037497 0.0037498 5.49415)
(-0.00733281 0.00032526 4.72052)
(-0.00804402 -0.00025802 3.38609)
(-0.00212982 9.32451e-05 1.44108)
(-0.00120429 0.0012044 5.86463)
(-0.00212489 0.00155256 5.61551)
(-0.00257351 0.000889709 4.81534)
(-0.00244391 0.000124941 3.47415)
(-0.000548362 -1.44748e-05 1.47894)
(0.00120441 -0.00120431 5.86463)
(0.00112 0.00111997 5.91431)
(0.00199562 0.00190342 5.64726)
(0.00234813 0.00102727 4.84762)
(0.00200363 0.000105081 3.50782)
(0.000391921 -2.19093e-05 1.48643)
(0.00374982 -0.0037497 5.49415)
(0.00155259 -0.00212492 5.61551)
(0.00190343 0.0019956 5.64726)
(0.00287539 0.00287537 5.46515)
(0.00503803 0.0014936 4.7346)
(0.0040768 0.000419975 3.42792)
(0.000691217 7.46382e-05 1.44324)
(0.00719256 -0.00719244 4.51868)
(0.000325264 -0.00733284 4.72052)
(0.000889723 -0.00257354 4.81534)
(0.00102729 0.00234814 4.84762)
(0.00149358 0.00503805 4.7346)
(0.00350786 0.00350789 4.21728)
(0.00329891 0.00120474 3.07939)
(0.000516745 0.000193056 1.30275)
(0.0116734 -0.0116732 2.89393)
(-0.000888526 -0.0132947 3.21372)
(-0.000258016 -0.00804405 3.38609)
(0.000124956 -0.00244382 3.47414)
(0.0001051 0.00200358 3.50782)
(0.000419966 0.00407684 3.42792)
(0.00120477 0.00329885 3.07939)
(0.00132186 0.00132191 2.30214)
(0.000270319 0.000185505 1.01128)
(0.0139132 -0.0139132 0.699812)
(-0.000126255 -0.00796949 1.14898)
(-9.25598e-06 -0.00428778 1.3574)
(9.32545e-05 -0.0021294 1.44108)
(-1.4366e-05 -0.000548991 1.47894)
(-2.18863e-05 0.000392047 1.48643)
(7.44881e-05 0.000691143 1.44323)
(0.000192992 0.000516956 1.30275)
(0.00018543 0.00027051 1.01128)
(4.20021e-05 4.19472e-05 0.49491)
(-0.00308423 0.0298374 1.11185)
(-0.00228313 0.0022831 0.609229)
(0.00011238 0.0208395 3.19978)
(-0.00613469 0.00613478 2.71707)
(-0.00330744 6.05074e-05 1.1239)
(-0.000757035 0.00991699 4.68678)
(-0.00510369 0.0051038 4.43629)
(-0.0102994 0.000563908 3.19471)
(-0.00256062 0.000147942 1.34337)
(-0.00166177 0.00264353 5.57052)
(-0.0028155 0.0028156 5.48515)
(-0.00665564 0.00122252 4.73409)
(-0.00653724 0.000241879 3.4069)
(-0.0013603 2.84016e-05 1.44271)
(-0.0012043 -0.00120431 5.86463)
(-0.00111989 0.00111997 5.91431)
(-0.00199551 0.00190334 5.64726)
(-0.00234815 0.00102724 4.84762)
(-0.00200357 0.000105065 3.50782)
(-0.000392018 -2.22887e-05 1.48643)
(0.00264354 -0.00166178 5.57052)
(0.00112 -0.00111993 5.91431)
(0.0011899 0.00118988 5.95286)
(0.00180715 0.0018874 5.66968)
(0.00207982 0.000925711 4.87578)
(0.00163425 0.000128877 3.535)
(0.000292546 8.87842e-06 1.49139)
(0.00991701 -0.000757034 4.68678)
(0.00281562 -0.00281553 5.48515)
(0.00190336 -0.00199553 5.64726)
(0.00188742 0.00180717 5.66968)
(0.00264223 0.00264224 5.46)
(0.0043056 0.00148423 4.73391)
(0.00323529 0.000508437 3.43219)
(0.000517251 9.14999e-05 1.44141)
(0.0208395 0.000112387 3.19978)
(0.0051038 -0.00510369 4.43629)
(0.00122253 -0.00665567 4.73409)
(0.00102728 -0.00234808 4.84762)
(0.000925707 0.00207978 4.87578)
(0.0014842 0.00430565 4.73391)
(0.00303164 0.00303161 4.18867)
(0.00254807 0.00114841 3.06021)
(0.000401867 0.000179038 1.29528)
(0.0298374 -0.00308422 1.11185)
(0.00613478 -0.00613469 2.71707)
(0.000563904 -0.0102994 3.19471)
(0.000241947 -0.00653713 3.4069)
(0.000105041 -0.00200371 3.50782)
(0.00012888 0.00163429 3.535)
(0.000508426 0.00323529 3.43219)
(0.00114841 0.00254808 3.06021)
(0.00107957 0.00107966 2.28269)
(0.000234533 0.0001576 1.00419)
(0.00228309 -0.00228313 0.609229)
(6.04933e-05 -0.00330747 1.1239)
(0.000148061 -0.00256021 1.34337)
(2.83206e-05 -0.00136118 1.44271)
(-2.22234e-05 -0.000391693 1.48643)
(8.67618e-06 0.000292749 1.49139)
(9.1458e-05 0.000517348 1.44141)
(0.000179047 0.000402072 1.29528)
(0.000157639 0.00023445 1.00419)
(3.76019e-05 3.75228e-05 0.491779)
(0.00214291 0.0299841 1.24591)
(0.00012623 0.00796945 1.14898)
(-0.000525073 0.000525266 0.563858)
(0.00192473 0.015689 3.26131)
(0.000888608 0.0132948 3.21372)
(-0.00486199 0.00486206 2.58163)
(-0.00161022 0.000159512 1.08623)
(-3.56236e-05 0.00393771 4.7081)
(-0.000325145 0.00733293 4.72052)
(-0.00512665 0.00512673 4.36414)
(-0.00785598 0.00113215 3.16033)
(-0.00148753 0.000141514 1.33052)
(-0.00166178 -0.00264345 5.57052)
(-0.00155245 0.00212496 5.61551)
(-0.00296687 0.00296705 5.47531)
(-0.00588411 0.00150574 4.73518)
(-0.00516027 0.000334893 3.41974)
(-0.000943696 3.93945e-05 1.44381)
(-0.00264343 -0.00166179 5.57052)
(-0.00111988 -0.00111992 5.91431)
(-0.00118991 0.00118966 5.95286)
(-0.00180685 0.00188782 5.66968)
(-0.00208 0.000925266 4.87578)
(-0.0016345 0.000129126 3.535)
(-0.000292966 8.89735e-06 1.49139)
(0.00393772 -3.56253e-05 4.7081)
(0.00212499 -0.00155248 5.61551)
(0.00118968 -0.00118993 5.95286)
(0.00113958 0.00113959 5.98266)
(0.00159094 0.00172529 5.69042)
(0.00182981 0.000888744 4.90065)
(0.00133075 0.000191524 3.55603)
(0.000221423 2.75724e-05 1.49423)
(0.015689 0.00192474 3.26131)
(0.00733295 -0.000325151 4.72052)
(0.00296707 -0.0029669 5.47531)
(0.00188785 -0.00180678 5.66968)
(0.00172529 0.0015909 5.69042)
(0.002443 0.00244305 5.45881)
(0.00367884 0.00146854 4.7329)
(0.00257679 0.00057089 3.4337)
(0.000395762 9.3859e-05 1.43897)
(0.0299841 0.00214291 1.24591)
(0.0132948 0.000888619 3.21372)
(0.00512674 -0.00512667 4.36413)
(0.00150582 -0.00588402 4.73518)
(0.000925226 -0.0020801 4.87578)
(0.000888725 0.00182983 4.90065)
(0.00146855 0.00367884 4.7329)
(0.00262176 0.00262174 4.16596)
(0.00200263 0.00106833 3.04407)
(0.000326878 0.000163264 1.28875)
(0.00796944 0.000126237 1.14898)
(0.00486205 -0.004862 2.58163)
(0.00113227 -0.00785588 3.16032)
(0.000334793 -0.00516046 3.41974)
(0.000129138 -0.00163449 3.535)
(0.000191505 0.00133083 3.55603)
(0.000570888 0.00257678 3.4337)
(0.00106829 0.00200271 3.04407)
(0.000896629 0.000896643 2.26729)
(0.000207816 0.000133301 0.998234)
(0.000525247 -0.000525089 0.563858)
(0.000159674 -0.00160993 1.08623)
(0.000141261 -0.00148836 1.33052)
(3.95143e-05 -0.000943268 1.44381)
(8.75909e-06 -0.000292489 1.49139)
(2.75307e-05 0.000221336 1.49423)
(9.39711e-05 0.000395836 1.43897)
(0.000163317 0.000326811 1.28875)
(0.000133377 0.000207629 0.998234)
(3.35194e-05 3.35178e-05 0.489054)
(0.00261848 0.0198969 1.27903)
(0.00107137 0.00847969 1.34421)
(-6.0345e-05 0.0033078 1.1239)
(-0.000115604 0.000114982 0.534396)
(0.00143865 0.00541663 3.27074)
(0.00176093 0.00991752 3.34086)
(-0.00056386 0.0102995 3.19471)
(-0.00376631 0.00376602 2.47887)
(-0.000788912 0.000190206 1.06056)
(-3.563e-05 -0.00393762 4.7081)
(-8.01317e-05 0.00280705 4.77002)
(-0.00122248 0.00665583 4.73409)
(-0.0047162 0.00471605 4.30176)
(-0.0058115 0.0012156 3.12867)
(-0.000970371 0.000170081 1.3204)
(-0.00374971 -0.00374972 5.49415)
(-0.00155245 -0.00212493 5.61551)
(-0.0019033 0.00199557 5.64726)
(-0.00287527 0.00287599 5.46515)
(-0.00503787 0.00149278 4.7346)
(-0.00407713 0.000420359 3.42792)
(-0.000691788 7.4823e-05 1.44323)
(-0.00393761 -3.56354e-05 4.7081)
(-0.00212489 -0.00155248 5.61551)
(-0.00118992 -0.00118994 5.95286)
(-0.0011382 0.00114004 5.98266)
(-0.00159244 0.00172443 5.69042)
(-0.00182938 0.000889355 4.90065)
(-0.00133117 0.000191356 3.55603)
(-0.000221191 2.79017e-05 1.49423)
(0.00541665 0.00143865 3.27074)
(0.00280708 -8.01407e-05 4.77002)
(0.00199559 -0.00190333 5.64726)
(0.00114003 -0.00113814 5.98266)
(0.00103388 0.00103384 6.0105)
(0.00141226 0.00161537 5.71022)
(0.00159818 0.000880985 4.92192)
(0.00108181 0.000254441 3.57195)
(0.000169856 3.29048e-05 1.49568)
(0.0198969 0.00261849 1.27903)
(0.00991754 0.00176095 3.34086)
(0.00665585 -0.0012225 4.73408)
(0.00287604 -0.0028752 5.46515)
(0.00172441 -0.00159253 5.69042)
(0.00161533 0.00141227 5.71022)
(0.00225387 0.00225388 5.45987)
(0.00314133 0.00143407 4.73173)
(0.00206345 0.000603397 3.43345)
(0.000311514 9.42603e-05 1.43628)
(0.0084797 0.00107139 1.34421)
(0.0102996 -0.000563871 3.19471)
(0.00471616 -0.00471616 4.30176)
(0.00149268 -0.00503797 4.7346)
(0.000889337 -0.00182941 4.90065)
(0.00088099 0.00159824 4.92192)
(0.00143409 0.0031413 4.73173)
(0.00227006 0.00227011 4.14786)
(0.00160443 0.000979751 3.03049)
(0.000276512 0.000147879 1.28304)
(0.00330777 -6.03589e-05 1.1239)
(0.00376615 -0.00376625 2.47887)
(0.00121544 -0.00581167 3.12867)
(0.000420372 -0.00407712 3.42792)
(0.00019138 -0.001331 3.55603)
(0.000254429 0.0010818 3.57195)
(0.000603391 0.00206348 3.43345)
(0.000979724 0.00160447 3.03049)
(0.000756658 0.00075659 2.25478)
(0.000186259 0.000112397 0.993137)
(0.000115123 -0.000115485 0.534396)
(0.000189894 -0.000789498 1.06056)
(0.000170229 -0.000969965 1.3204)
(7.48398e-05 -0.000691169 1.44323)
(2.78279e-05 -0.000221456 1.49423)
(3.30584e-05 0.000169696 1.49568)
(9.4341e-05 0.000311484 1.43628)
(0.000147903 0.000276317 1.28304)
(0.000112409 0.00018622 0.993138)
(2.99468e-05 2.99934e-05 0.486659)
(0.00231172 0.00687538 1.28297)
(0.00103791 0.00564263 1.40248)
(9.22255e-06 0.0042881 1.3574)
(-0.000160014 0.00160896 1.08623)
(-2.26735e-05 2.36025e-05 0.52118)
(0.00143864 -0.00541652 3.27074)
(0.00146802 0.00341298 3.36629)
(0.000257927 0.0080443 3.38609)
(-0.00113221 0.00785556 3.16033)
(-0.00276723 0.00276768 2.40889)
(-0.000505846 0.000229789 1.04353)
(-0.000757054 -0.00991691 4.68678)
(-8.01134e-05 -0.00280701 4.77002)
(-0.000889841 0.00257371 4.81534)
(-0.00150575 0.00588411 4.73518)
(-0.00407204 0.00407176 4.25383)
(-0.00434079 0.00122506 3.10202)
(-0.000693286 0.00019438 1.31119)
(-0.0099169 -0.000757063 4.68678)
(-0.00281548 -0.00281552 5.48516)
(-0.00190307 -0.00199551 5.64726)
(-0.00188745 0.00180794 5.66968)
(-0.00264236 0.00264042 5.46)
(-0.00430586 0.00148547 4.73391)
(-0.00323558 0.000507992 3.43219)
(-0.000516919 9.22716e-05 1.44141)
(-0.00541651 0.00143864 3.27074)
(-0.00280697 -8.01301e-05 4.77002)
(-0.00199549 -0.0019031 5.64726)
(-0.00113832 -0.00113826 5.98266)
(-0.00103699 0.0010332 6.0105)
(-0.00141074 0.00161592 5.71022)
(-0.0015986 0.000881101 4.92192)
(-0.00108188 0.000254231 3.57195)
(-0.000169482 3.30337e-05 1.49568)
(0.0068754 0.00231173 1.28297)
(0.00341302 0.00146803 3.36629)
(0.00257374 -0.000889866 4.81534)
(0.00180793 -0.00188739 5.66968)
(0.00103324 -0.00103707 6.0105)
(0.000952584 0.000952601 6.03703)
(0.00125392 0.00151586 5.72862)
(0.00138733 0.000880936 4.93989)
(0.000879731 0.000303376 3.5839)
(0.000132609 3.86379e-05 1.49619)
(0.00564266 0.00103793 1.40248)
(0.00804432 0.000257916 3.38609)
(0.00588418 -0.00150574 4.73518)
(0.00264037 -0.00264242 5.46)
(0.00161588 -0.00141077 5.71022)
(0.00151585 0.00125398 5.72862)
(0.00207212 0.00207208 5.46234)
(0.00268289 0.00138246 4.73064)
(0.00166554 0.000613805 3.43212)
(0.00025273 9.47498e-05 1.43351)
(0.00428808 9.22256e-06 1.3574)
(0.00785568 -0.00113222 3.16033)
(0.00407163 -0.00407209 4.25383)
(0.00148544 -0.00430591 4.73391)
(0.000881141 -0.00159848 4.92192)
(0.000880945 0.00138732 4.93989)
(0.00138244 0.00268291 4.73064)
(0.00197128 0.00197134 4.13334)
(0.00131092 0.000892257 3.01901)
(0.000240717 0.000131896 1.27803)
(0.00160925 -0.00015996 1.08623)
(0.00276748 -0.00276736 2.40889)
(0.00122507 -0.00434079 3.10202)
(0.000508087 -0.00323539 3.43219)
(0.000254218 -0.00108188 3.57195)
(0.000303373 0.000879696 3.5839)
(0.000613794 0.00166559 3.43212)
(0.000892279 0.00131087 3.01901)
(0.000647191 0.000647144 2.24437)
(0.000168174 9.50424e-05 0.98872)
(2.33242e-05 -2.29135e-05 0.52118)
(0.00022994 -0.000505555 1.04353)
(0.000194536 -0.000692718 1.31119)
(9.21592e-05 -0.000517283 1.44141)
(3.31297e-05 -0.00016987 1.49568)
(3.87379e-05 0.000132627 1.49619)
(9.47147e-05 0.00025264 1.43351)
(0.000131869 0.000240666 1.27803)
(9.5003e-05 0.000168264 0.98872)
(2.6918e-05 2.69504e-05 0.484536)
(0.00231172 -0.00687525 1.28297)
(0.000941268 0.00196759 1.41466)
(-2.9635e-05 0.00320022 1.43679)
(-0.000147929 0.00255928 1.34337)
(-0.000189482 0.000790815 1.06056)
(-4.28744e-05 4.2249e-05 0.513998)
(0.00192471 -0.0156889 3.26131)
(0.00146806 -0.00341292 3.36629)
(0.0001981 0.00288164 3.43179)
(-0.000241561 0.00653672 3.4069)
(-0.00121551 0.00581188 3.12867)
(-0.00209488 0.00209466 2.36139)
(-0.000393002 0.000237052 1.03045)
(-0.00719247 -0.00719248 4.51868)
(-0.000325102 -0.00733284 4.72052)
(-0.000889798 -0.00257358 4.81534)
(-0.00102781 0.00234818 4.84762)
(-0.00149286 0.00503688 4.7346)
(-0.00350835 0.00350878 4.21728)
(-0.00329908 0.00120419 3.07939)
(-0.000516319 0.000193743 1.30275)
(-0.0156888 0.0019247 3.26131)
(-0.0073328 -0.000325129 4.72052)
(-0.00296694 -0.00296697 5.47531)
(-0.00188791 -0.00180682 5.66968)
(-0.0017257 0.00158947 5.69042)
(-0.00244295 0.00244449 5.45881)
(-0.00367919 0.0014686 4.7329)
(-0.00257676 0.000570535 3.4337)
(-0.00039529 9.40709e-05 1.43897)
(-0.00687524 0.00231172 1.28297)
(-0.00341287 0.00146806 3.36629)
(-0.00257355 -0.000889821 4.81534)
(-0.00180689 -0.00188783 5.66968)
(-0.00103689 -0.00103699 6.0105)
(-0.000950375 0.000952888 6.03703)
(-0.00125367 0.00151623 5.72862)
(-0.00138789 0.000880523 4.93989)
(-0.000879534 0.000303413 3.58391)
(-0.000132884 3.84355e-05 1.49619)
(0.00196765 0.000941291 1.41466)
(0.00288167 0.000198089 3.43179)
(0.00234817 -0.00102782 4.84762)
(0.00158951 -0.00172575 5.69041)
(0.000952871 -0.000950408 6.03703)
(0.000872601 0.000872664 6.06177)
(0.00111493 0.00142502 5.74562)
(0.00119901 0.000880007 4.95509)
(0.000717391 0.000338698 3.59277)
(0.000105986 4.67375e-05 1.49604)
(0.00320022 -2.96308e-05 1.43679)
(0.00653678 -0.000241618 3.4069)
(0.00503682 -0.00149284 4.7346)
(0.00244444 -0.00244301 5.45881)
(0.00151624 -0.00125356 5.72862)
(0.00142506 0.00111493 5.74562)
(0.00189957 0.00189957 5.46577)
(0.00229425 0.00131817 4.72974)
(0.00135796 0.000610642 3.43014)
(0.000210712 9.20217e-05 1.43077)
(0.00255954 -0.000148029 1.34337)
(0.00581173 -0.0012155 3.12866)
(0.00350875 -0.00350839 4.21728)
(0.00146869 -0.00367907 4.7329)
(0.000880539 -0.00138786 4.93989)
(0.000879984 0.00119898 4.95509)
(0.00131813 0.0022943 4.72974)
(0.00172003 0.00172002 4.12162)
(0.001091 0.000809606 3.00922)
(0.000214042 0.000116026 1.2736)
(0.000790258 -0.000189589 1.06056)
(0.0020947 -0.00209487 2.36139)
(0.00120434 -0.00329892 3.07939)
(0.000570527 -0.00257676 3.4337)
(0.000303379 -0.000879633 3.58391)
(0.000338699 0.000717414 3.59277)
(0.000610645 0.00135796 3.43014)
(0.000809636 0.00109094 3.00922)
(0.000559585 0.000559601 2.23554)
(0.000152716 8.12455e-05 0.98485)
(4.24001e-05 -4.27411e-05 0.513999)
(0.000237251 -0.000392627 1.03045)
(0.000193611 -0.000516677 1.30275)
(9.40407e-05 -0.000395797 1.43897)
(3.85342e-05 -0.000132825 1.49619)
(4.66816e-05 0.000106079 1.49604)
(9.19393e-05 0.000210701 1.43077)
(0.000115991 0.000214127 1.2736)
(8.12105e-05 0.000152799 0.984849)
(2.43109e-05 2.43093e-05 0.48264)
(0.00261847 -0.0198968 1.27903)
(0.000941212 -0.00196759 1.41466)
(-6.30968e-05 0.00118468 1.45772)
(-9.24568e-05 0.00212891 1.44108)
(-0.000141663 0.00148956 1.33052)
(-0.00023025 0.000504639 1.04353)
(-5.45018e-05 5.40288e-05 0.50806)
(0.000112346 -0.0208394 3.19978)
(0.001761 -0.00991746 3.34086)
(0.000197942 -0.00288136 3.43179)
(-0.000124322 0.00244348 3.47415)
(-0.000334733 0.00516055 3.41974)
(-0.00122514 0.00434084 3.10202)
(-0.00164595 0.00164535 2.32745)
(-0.000320541 0.000215645 1.01988)
(-0.0208394 0.000112339 3.19978)
(-0.00510368 -0.00510372 4.43629)
(-0.0012227 -0.00665595 4.73409)
(-0.00102802 -0.00234786 4.84762)
(-0.000924042 0.0020788 4.87577)
(-0.00148527 0.00430719 4.73391)
(-0.00303164 0.00303123 4.18866)
(-0.00254805 0.00114826 3.06021)
(-0.000401341 0.000179052 1.29528)
(-0.0198968 0.00261847 1.27903)
(-0.0099174 0.00176099 3.34086)
(-0.00665592 -0.00122273 4.73409)
(-0.00287581 -0.00287572 5.46515)
(-0.001725 -0.00159252 5.69042)
(-0.00161474 0.00141312 5.71022)
(-0.00225422 0.00225457 5.45987)
(-0.00314139 0.00143318 4.73173)
(-0.00206329 0.000603604 3.43345)
(-0.000311781 9.37263e-05 1.43628)
(-0.00196751 0.000941227 1.41466)
(-0.00288132 0.000197931 3.43179)
(-0.00234795 -0.00102801 4.84762)
(-0.00159242 -0.00172507 5.69042)
(-0.000950357 -0.000950389 6.03703)
(-0.000871625 0.000872955 6.06177)
(-0.00111613 0.00142462 5.74562)
(-0.001199 0.000879812 4.95509)
(-0.000717365 0.000338851 3.59277)
(-0.000106219 4.6508e-05 1.49604)
(0.00118468 -6.30915e-05 1.45772)
(0.00244345 -0.000124397 3.47415)
(0.00207883 -0.000924004 4.87577)
(0.0014131 -0.00161479 5.71022)
(0.000872898 -0.000871518 6.06177)
(0.000798482 0.000798478 6.08476)
(0.000994086 0.00134357 5.76135)
(0.00103303 0.000872581 4.96796)
(0.000588104 0.000364966 3.59925)
(8.66214e-05 5.17324e-05 1.49543)
(0.00212901 -9.26596e-05 1.44108)
(0.00516048 -0.00033464 3.41974)
(0.00430714 -0.0014853 4.73391)
(0.00225461 -0.00225414 5.45987)
(0.00142466 -0.00111608 5.74562)
(0.00134357 0.000994057 5.76135)
(0.0017352 0.00173525 5.46985)
(0.00196745 0.00124811 4.72904)
(0.00111968 0.000598486 3.42777)
(0.000180155 8.57176e-05 1.42811)
(0.00148904 -0.000141513 1.33052)
(0.00434084 -0.00122517 3.10202)
(0.00303136 -0.00303157 4.18866)
(0.00143321 -0.00314134 4.73173)
(0.000879766 -0.00119906 4.95509)
(0.000872548 0.00103304 4.96796)
(0.00124811 0.00196747 4.72904)
(0.00150931 0.00150927 4.11208)
(0.00092287 0.000732724 3.00081)
(0.000193326 0.000101918 1.26968)
(0.00050489 -0.000230202 1.04353)
(0.00164553 -0.00164584 2.32745)
(0.00114825 -0.00254805 3.06021)
(0.000603522 -0.00206342 3.43345)
(0.000338841 -0.000717381 3.59278)
(0.000364972 0.00058813 3.59925)
(0.000598494 0.00111965 3.42777)
(0.000732726 0.000922867 3.00081)
(0.000488335 0.000488375 2.22794)
(0.000139251 7.03988e-05 0.981426)
(5.41795e-05 -5.43695e-05 0.50806)
(0.00021551 -0.000320806 1.01988)
(0.000178915 -0.000401808 1.29528)
(9.38003e-05 -0.000311695 1.43628)
(4.64905e-05 -0.000105948 1.49604)
(5.16253e-05 8.66887e-05 1.49543)
(8.56811e-05 0.0001802 1.42811)
(0.000101911 0.000193412 1.26968)
(7.03945e-05 0.000139265 0.981426)
(2.20135e-05 2.19915e-05 0.480936)
(0.00214289 -0.0299839 1.24591)
(0.00103787 -0.00564265 1.40248)
(-6.29344e-05 -0.00118453 1.45772)
(-8.17985e-05 0.000824439 1.47006)
(-3.01451e-05 0.0013617 1.44271)
(-0.000170226 0.000969014 1.3204)
(-0.000237494 0.000391751 1.03046)
(-5.16029e-05 5.22133e-05 0.502892)
(-0.0116733 -0.0116733 2.89393)
(0.000888637 -0.0132947 3.21372)
(0.000257638 -0.00804417 3.38609)
(-0.000124066 -0.00244379 3.47415)
(-0.000104582 0.00200365 3.50782)
(-0.00042089 0.00407757 3.42792)
(-0.00120448 0.00329827 3.07939)
(-0.00132187 0.00132201 2.30215)
(-0.000269881 0.000185421 1.01128)
(-0.0299839 0.00214288 1.24591)
(-0.0132946 0.000888615 3.21372)
(-0.00512675 -0.00512677 4.36414)
(-0.0015062 -0.00588369 4.73518)
(-0.000923221 -0.00208023 4.87577)
(-0.000890118 0.00183096 4.90065)
(-0.00146889 0.00367902 4.7329)
(-0.00262152 0.00262099 4.16596)
(-0.00200256 0.00106871 3.04407)
(-0.00032714 0.000162622 1.28875)
(-0.00564256 0.00103787 1.40248)
(-0.00804413 0.000257625 3.38609)
(-0.00588381 -0.00150614 4.73518)
(-0.00264092 -0.00264103 5.46)
(-0.00161516 -0.00141085 5.71022)
(-0.00151603 0.00125458 5.72862)
(-0.00207242 0.00207108 5.46234)
(-0.00268272 0.0013822 4.73064)
(-0.0016656 0.000614161 3.43212)
(-0.000253028 9.42452e-05 1.43351)
(-0.00118453 -6.29267e-05 1.45772)
(-0.00244388 -0.000124113 3.47415)
(-0.00208011 -0.00092322 4.87577)
(-0.00141081 -0.00161521 5.71022)
(-0.000871637 -0.000871524 6.06177)
(-0.000800209 0.000798274 6.08476)
(-0.000994643 0.00134324 5.76135)
(-0.00103272 0.000872761 4.96796)
(-0.000588191 0.000365032 3.59925)
(-8.65999e-05 5.17171e-05 1.49543)
(0.000824318 -8.20289e-05 1.47006)
(0.00200369 -0.000104462 3.50782)
(0.00183094 -0.000890137 4.90065)
(0.00125453 -0.00151596 5.72863)
(0.00079828 -0.000800164 6.08476)
(0.000733888 0.000733858 6.10614)
(0.000887088 0.00126504 5.77594)
(0.000888917 0.000859996 4.97885)
(0.000485464 0.000384187 3.60387)
(7.23983e-05 5.16878e-05 1.4945)
(0.00136148 -2.97834e-05 1.44271)
(0.00407755 -0.000420915 3.42792)
(0.00367908 -0.00146889 4.7329)
(0.00207113 -0.00207237 5.46234)
(0.00134323 -0.000994689 5.76135)
(0.001265 0.000887098 5.77594)
(0.00158111 0.00158113 5.47432)
(0.00169437 0.0011774 4.72855)
(0.000933973 0.000579233 3.42523)
(0.000157546 7.84109e-05 1.42557)
(0.000969236 -0.000170243 1.3204)
(0.0032984 -0.00120449 3.07939)
(0.00262103 -0.00262149 4.16596)
(0.00138212 -0.00268278 4.73064)
(0.000872713 -0.00103275 4.96796)
(0.000860001 0.000888938 4.97885)
(0.00117743 0.00169435 4.72855)
(0.00133161 0.00133159 4.10424)
(0.000791807 0.000662103 2.99353)
(0.000176549 9.03026e-05 1.26618)
(0.000392099 -0.00023743 1.03045)
(0.00132196 -0.00132189 2.30215)
(0.00106859 -0.00200269 3.04407)
(0.000614127 -0.00166564 3.43212)
(0.00036505 -0.00058814 3.59925)
(0.00038419 0.000485472 3.60387)
(0.000579231 0.000933964 3.42523)
(0.000662088 0.000791839 2.99353)
(0.000429649 0.00042967 2.22132)
(0.000127343 6.16378e-05 0.978374)
(5.20821e-05 -5.17233e-05 0.502891)
(0.000185255 -0.000270189 1.01128)
(0.000162667 -0.000327045 1.28875)
(9.43021e-05 -0.000252657 1.43351)
(5.16382e-05 -8.64563e-05 1.49543)
(5.16462e-05 7.23803e-05 1.4945)
(7.84369e-05 0.000157574 1.42557)
(9.03191e-05 0.000176567 1.26618)
(6.16566e-05 0.000127302 0.978374)
(1.99833e-05 1.99629e-05 0.479397)
(-0.00308425 -0.0298373 1.11185)
(0.00107137 -0.00847972 1.34421)
(-2.95291e-05 -0.00319999 1.43679)
(-8.16305e-05 -0.000824517 1.47006)
(1.07346e-05 0.000548612 1.47894)
(-3.87282e-05 0.000942664 1.44381)
(-0.000194224 0.00069173 1.31119)
(-0.000215182 0.000321767 1.01988)
(-4.65415e-05 4.69118e-05 0.498558)
(-0.0298373 -0.00308425 1.11185)
(-0.00613465 -0.00613468 2.71707)
(-0.000563943 -0.0102996 3.19471)
(-0.000241327 -0.0065367 3.4069)
(-0.000104313 -0.00200379 3.50782)
(-0.000130737 0.00163494 3.535)
(-0.000507995 0.00323476 3.43219)
(-0.00114828 0.00254781 3.06021)
(-0.00107958 0.00108007 2.28269)
(-0.000234757 0.000157159 1.00419)
(-0.00847964 0.00107136 1.34421)
(-0.0102995 -0.000563961 3.19471)
(-0.00471626 -0.00471616 4.30177)
(-0.00149111 -0.00503724 4.7346)
(-0.000890848 -0.00182952 4.90065)
(-0.000881776 0.00159857 4.92192)
(-0.00143353 0.00314023 4.73173)
(-0.00227 0.00227022 4.14786)
(-0.00160455 0.000980061 3.03049)
(-0.000276871 0.000147462 1.28304)
(-0.0032 -2.95253e-05 1.43679)
(-0.00653685 -0.000241314 3.4069)
(-0.0050371 -0.00149117 4.7346)
(-0.00244397 -0.00244402 5.45881)
(-0.00151639 -0.00125359 5.72862)
(-0.00142561 0.00111433 5.74562)
(-0.00189943 0.00189889 5.46577)
(-0.00229417 0.00131866 4.72974)
(-0.00135809 0.000610725 3.43014)
(-0.000210725 9.20627e-05 1.43077)
(-0.000824838 -8.18161e-05 1.47006)
(-0.00200364 -0.000104237 3.50782)
(-0.00182949 -0.000890864 4.90065)
(-0.00125371 -0.0015163 5.72863)
(-0.000800146 -0.000800101 6.08476)
(-0.000735039 0.000733651 6.10614)
(-0.000886592 0.00126516 5.77594)
(-0.000888727 0.000860227 4.97885)
(-0.000485599 0.000384122 3.60387)
(-7.21683e-05 5.18415e-05 1.4945)
(0.000548836 1.117e-05 1.47894)
(0.00163492 -0.000130749 3.535)
(0.00159852 -0.000881792 4.92192)
(0.00111434 -0.00142557 5.74562)
(0.000733678 -0.000735083 6.10614)
(0.000675142 0.00067515 6.12607)
(0.000791634 0.00118818 5.78948)
(0.000765464 0.000845069 4.9881)
(0.00040396 0.000396087 3.60707)
(6.183e-05 4.92107e-05 1.49337)
(0.000942751 -3.88104e-05 1.44381)
(0.0032348 -0.000508082 3.43219)
(0.00314027 -0.00143352 4.73173)
(0.00189886 -0.00189946 5.46577)
(0.0012651 -0.000886627 5.77594)
(0.00118816 0.000791652 5.78948)
(0.00144006 0.00144004 5.47901)
(0.00146648 0.00110782 4.72824)
(0.00078817 0.000554569 3.42262)
(0.000140427 7.22335e-05 1.42317)
(0.000692054 -0.000194356 1.31119)
(0.00254781 -0.00114826 3.06021)
(0.00227012 -0.00227004 4.14786)
(0.00131859 -0.00229421 4.72974)
(0.000860236 -0.000888712 4.97885)
(0.000845095 0.000765472 4.9881)
(0.00110784 0.00146647 4.72824)
(0.00118046 0.00118048 4.09776)
(0.000687771 0.000598109 2.98716)
(0.000162477 8.07572e-05 1.26303)
(0.00032154 -0.000215235 1.01988)
(0.00107991 -0.00107967 2.28269)