/*--------------------------------*- C++ -*----------------------------------*\
  =========                 |
  \\      /  F ield         | OpenFOAM: The Open Source CFD Toolbox
   \\    /   O peration     | Website:  https://openfoam.org
    \\  /    A nd           | Version:  12
     \\/     M anipulation  |
\*---------------------------------------------------------------------------*/
FoamFile
{
    format      ascii;
    class       surfaceScalarField;
    location    "500";
    object      phi;
}
// * * * * * * * * * * * * * * * * * * * * * * * * * * * * * * * * * * * * * //

dimensions      [0 3 -1 0 0 0 0];

internalField   nonuniform List<scalar> 
27900
(
2.68431e-05
2.68431e-05
6.93907e-05
3.18646e-05
1.005e-06
0.00011705
1.00501e-06
3.18646e-05
0.00011705
5.38663e-06
5.38663e-06
5.86174e-05
2.49815e-05
-3.31862e-06
0.000133279
2.21057e-05
2.21057e-05
0.00028359
7.43769e-06
1.32491e-06
0.000113674
-3.31862e-06
2.49815e-05
0.000133279
1.32491e-06
7.43769e-06
0.000113674
2.03779e-06
2.03779e-06
5.45418e-05
1.32335e-05
-2.97669e-06
0.000137802
1.92317e-05
1.84938e-06
0.000323498
6.53906e-06
-1.01527e-06
0.000135193
1.84938e-06
1.92317e-05
0.000323498
1.06321e-05
1.06321e-05
0.000264976
3.63265e-06
1.94115e-06
0.000110138
-2.97669e-06
1.32335e-05
0.000137802
-1.01527e-06
6.53906e-06
0.000135193
1.94115e-06
3.63265e-06
0.000110138
9.17226e-07
9.17227e-07
5.27074e-05
1.16349e-11
-2.35585e-06
0.000138666
1.02565e-05
-1.06136e-06
0.000332852
3.70471e-06
-1.50269e-06
0.000142139
1.2126e-05
1.2126e-05
0.000450035
1.10118e-05
1.59942e-06
0.000320504
3.64095e-06
5.01028e-07
0.000134683
-1.06136e-06
1.02565e-05
0.000332852
1.59942e-06
1.10118e-05
0.000320504
8.06268e-06
8.06268e-06
0.000252733
2.00366e-06
1.78306e-06
0.000107269
-2.35585e-06
1.04295e-11
0.000138666
-1.50269e-06
3.7047e-06
0.000142139
5.01028e-07
3.64095e-06
0.000134683
1.78306e-06
2.00366e-06
0.000107269
4.61025e-07
4.61041e-07
5.17853e-05
-1.32335e-05
-2.35585e-06
0.000138666
9.2752e-12
-9.0387e-07
0.000334596
1.30648e-11
-1.45615e-06
0.000143827
7.19087e-06
1.89716e-06
0.000472565
6.37966e-06
-4.93855e-07
0.000336475
2.22319e-06
2.01456e-08
0.000143536
1.89716e-06
7.19087e-06
0.000472565
6.56688e-06
6.56688e-06
0.0004401
8.96167e-06
2.61901e-06
0.000317487
2.29011e-06
7.69212e-07
0.000133628
-9.03869e-07
8.21164e-12
0.000334596
-4.93854e-07
6.37966e-06
0.000336475
2.61901e-06
8.96166e-06
0.000317487
5.9839e-06
5.9839e-06
0.000244331
1.06846e-06
1.43087e-06
0.000105231
-2.35585e-06
-1.32335e-05
0.000138666
-1.45615e-06
1.02193e-11
0.000143827
2.01447e-08
2.22319e-06
0.000143536
7.6921e-07
2.29011e-06
0.000133628
1.43086e-06
1.06849e-06
0.000105231
3.36535e-07
3.36496e-07
5.11123e-05
-2.49815e-05
-2.97668e-06
0.000137802
-1.02565e-05
-9.03868e-07
0.000334596
-3.70468e-06
-1.45615e-06
0.000143827
7.55944e-12
7.90379e-07
0.000476085
1.37357e-11
-5.37875e-07
0.000340058
5.02881e-13
2.34422e-08
0.000146027
5.16614e-06
5.16614e-06
0.000550928
4.62231e-06
1.18073e-06
0.000472835
5.41731e-06
6.53315e-07
0.000339386
1.48871e-06
2.14871e-07
0.000144123
7.90379e-07
6.59257e-12
0.000476085
1.18073e-06
4.62231e-06
0.000472835
6.13259e-06
6.13258e-06
0.000433073
7.08535e-06
2.75448e-06
0.0003144
1.37083e-06
7.54066e-07
0.000132571
-9.03868e-07
-1.02565e-05
0.000334596
-5.37873e-07
1.10484e-11
0.000340058
6.53317e-07
5.41731e-06
0.000339386
2.75448e-06
7.08535e-06
0.0003144
4.32872e-06
4.32875e-06
0.000238536
6.84272e-07
1.17453e-06
0.000103708
-2.97668e-06
-2.49815e-05
0.000137802
-1.45615e-06
-3.70468e-06
0.000143827
2.34407e-08
4.25452e-12
0.000146027
2.14871e-07
1.48871e-06
0.000144123
7.54065e-07
1.37086e-06
0.000132571
1.17456e-06
6.84202e-07
0.000103708
2.83966e-07
2.84027e-07
5.05443e-05
-3.18646e-05
-3.31862e-06
0.000133279
-1.92317e-05
-1.06136e-06
0.000332852
-6.53904e-06
-1.50269e-06
0.000142139
-7.19086e-06
7.90379e-07
0.000476085
-6.37963e-06
-5.37874e-07
0.000340058
-2.22319e-06
2.34418e-08
0.000146027
7.17277e-12
2.18907e-06
0.000561234
1.07716e-11
7.75972e-07
0.000479393
5.69704e-12
4.68711e-07
0.00034503
-1.10279e-11
1.32737e-07
0.000147383
2.18907e-06
6.15357e-12
0.000561234
2.58093e-06
2.58093e-06
0.000548128
4.45117e-06
1.92133e-06
0.000473248
4.48253e-06
9.201e-07
0.000341284
9.50117e-07
1.93281e-07
0.00014435
7.9038e-07
-7.19086e-06
0.000476085
7.75973e-07
8.75e-12
0.000479393
1.92133e-06
4.45117e-06
0.000473248
5.42165e-06
5.42165e-06
0.000427739
5.4084e-06
2.521e-06
0.000311553
9.11235e-07
7.55889e-07
0.000131588
-1.06135e-06
-1.92317e-05
0.000332852
-5.37873e-07
-6.37964e-06
0.000340058
4.68712e-07
8.24159e-12
0.00034503
9.201e-07
4.48253e-06
0.000341284
2.52097e-06
5.40843e-06
0.000311553
3.21755e-06
3.21747e-06
0.00023445
5.04679e-07
9.74369e-07
0.000102513
-3.31862e-06
-3.18646e-05
0.000133279
-1.50269e-06
-6.53904e-06
0.000142139
2.34411e-08
-2.22318e-06
0.000146027
1.32737e-07
-1.37116e-11
0.000147383
1.93291e-07
9.50132e-07
0.00014435
7.5589e-07
9.11167e-07
0.000131588
9.7432e-07
5.04793e-07
0.000102513
2.37692e-07
2.37664e-07
5.00689e-05
-2.68431e-05
1.00501e-06
0.00011705
-2.21057e-05
1.84939e-06
0.000323498
-7.43767e-06
-1.01527e-06
0.000135193
-1.2126e-05
1.89716e-06
0.000472565
-1.10117e-05
-4.93852e-07
0.000336475
-3.64095e-06
2.01453e-08
0.000143536
-5.16613e-06
2.18907e-06
0.000561234
-4.62229e-06
7.75972e-07
0.000479393
-5.4173e-06
4.68709e-07
0.00034503
-1.48873e-06
1.32738e-07
0.000147383
7.26798e-12
6.16524e-12
0.000590803
9.30787e-12
1.33625e-06
0.000563254
3.89879e-12
1.38111e-06
0.000482932
-3.02903e-12
5.95229e-07
0.00034905
-2.94011e-11
3.9807e-08
0.000148293
2.18907e-06
-5.16613e-06
0.000561234
1.33625e-06
7.18583e-12
0.000563254
2.57221e-06
2.5722e-06
0.000546826
4.04491e-06
2.09469e-06
0.00047345
3.57148e-06
9.12841e-07
0.000342401
6.57683e-07
2.43534e-07
0.00014436
1.89716e-06
-1.2126e-05
0.000472565
7.75973e-07
-4.6223e-06
0.000479393
1.38112e-06
6.32134e-12
0.000482932
2.09469e-06
4.04491e-06
0.00047345
4.60472e-06
4.60475e-06
0.000423571
4.15776e-06
2.29188e-06
0.000309077
6.54201e-07
7.45016e-07
0.000130694
1.84939e-06
-2.21057e-05
0.000323498
-4.93852e-07
-1.10117e-05
0.000336475
4.68712e-07
-5.41729e-06
0.00034503
5.95226e-07
-7.18658e-12
0.00034905
9.12823e-07
3.5715e-06
0.000342401
2.29194e-06
4.15769e-06
0.000309077
2.4606e-06
2.4607e-06
0.000231477
3.93741e-07
8.02833e-07
0.000101554
1.00501e-06
-2.68431e-05
0.00011705
-1.01527e-06
-7.43768e-06
0.000135193
2.01465e-08
-3.64094e-06
0.000143536
1.32734e-07
-1.48873e-06
0.000147383
3.98241e-08
-3.83609e-11
0.000148293
2.43504e-07
6.57664e-07
0.00014436
7.45003e-07
6.54316e-07
0.000130694
8.02845e-07
3.93691e-07
0.000101554
1.98925e-07
1.98883e-07
4.96711e-05
2.68431e-05
6.93907e-05
-1.005e-06
2.21058e-05
0.00028359
-5.38663e-06
1.32491e-06
0.000113674
-1.84937e-06
1.2126e-05
0.000450035
-1.06321e-05
1.59942e-06
0.000320504
-3.63265e-06
5.01028e-07
0.000134683
-1.89715e-06
5.16614e-06
0.000550928
-6.56686e-06
1.18073e-06
0.000472835
-8.96166e-06
6.53314e-07
0.000339386
-2.29013e-06
2.14871e-07
0.000144123
-2.18906e-06
6.00097e-12
0.000590803
-2.58091e-06
1.33625e-06
0.000563254
-4.45116e-06
1.38112e-06
0.000482932
-4.48254e-06
5.9523e-07
0.00034905
-9.50172e-07
3.98016e-08
0.000148293
7.10331e-12
-2.18906e-06
0.000590803
7.50302e-12
5.39426e-12
0.000593476
6.65198e-12
1.55564e-06
0.000565652
1.47914e-13
1.44095e-06
0.000486131
-2.73068e-11
5.02055e-07
0.000352159
-6.1078e-12
5.17696e-08
0.000148899
5.16614e-06
-1.89715e-06
0.000550928
1.33625e-06
-2.58091e-06
0.000563254
1.55564e-06
9.67271e-12
0.000565652
2.39643e-06
2.39643e-06
0.000546223
3.5171e-06
2.00999e-06
0.000473441
2.84447e-06
9.46371e-07
0.000343011
4.79693e-07
3.05847e-07
0.000144229
1.2126e-05
-1.84937e-06
0.000450035
1.18073e-06
-6.56686e-06
0.000472835
1.38112e-06
-4.45116e-06
0.000482932
1.44095e-06
-4.92247e-12
0.000486131
2.00996e-06
3.51712e-06
0.000473441
3.92634e-06
3.92627e-06
0.000420302
3.23089e-06
2.07439e-06
0.000306977
4.85243e-07
7.04275e-07
0.000129898
2.21058e-05
-1.005e-06
0.00028359
1.59942e-06
-1.06321e-05
0.000320504
6.53318e-07
-8.96165e-06
0.000339386
5.95225e-07
-4.48254e-06
0.00034905
5.0205e-07
-3.09946e-11
0.000352159
9.46409e-07
2.84444e-06
0.000343011
2.0743e-06
3.23099e-06
0.000306977
1.92192e-06
1.9219e-06
0.000229239
3.20866e-07
6.6102e-07
0.000100771
2.68431e-05
6.93907e-05
1.32491e-06
-5.38663e-06
0.000113674
5.0103e-07
-3.63265e-06
0.000134683
2.14869e-07
-2.29014e-06
0.000144123
3.98229e-08
-9.50209e-07
0.000148293
5.17223e-08
4.80918e-11
0.000148899
3.05871e-07
4.79747e-07
0.000144229
7.04285e-07
4.85185e-07
0.000129898
6.61061e-07
3.20786e-07
0.000100771
1.69255e-07
1.6929e-07
4.93326e-05
3.18646e-05
0.00011705
5.38664e-06
5.86174e-05
3.31863e-06
1.92317e-05
0.000323498
-1.3249e-06
1.06321e-05
0.000264976
-2.03779e-06
1.94115e-06
0.000110138
1.06137e-06
7.19087e-06
0.000472565
-1.59941e-06
6.56688e-06
0.0004401
-8.06267e-06
2.61901e-06
0.000317487
-2.00367e-06
7.69208e-07
0.000133628
-7.90366e-07
5.8893e-12
0.000561234
-1.18072e-06
2.58092e-06
0.000548128
-6.13258e-06
1.92133e-06
0.000473248
-7.08536e-06
9.201e-07
0.000341284
-1.37088e-06
1.9327e-07
0.00014435
-2.18906e-06
-2.18906e-06
0.000590803
-1.33623e-06
3.00546e-12
0.000593476
-2.57219e-06
1.55565e-06
0.000565652
-4.04491e-06
1.44093e-06
0.000486131
-3.57153e-06
5.02059e-07
0.000352159
-6.57696e-07
5.17729e-08
0.000148899
6.91172e-12
-7.90367e-07
0.000561234
5.1128e-12
-1.33623e-06
0.000593476
1.62408e-11
1.96595e-11
0.000596587
-1.60439e-11
1.51887e-06
0.00056797
-1.50502e-11
1.31425e-06
0.000488836
-9.57391e-12
4.97622e-07
0.000354558
-1.01654e-11
1.01124e-07
0.000149278
7.19087e-06
1.06137e-06
0.000472565
2.58093e-06
-1.18072e-06
0.000548128
1.55565e-06
-2.57219e-06
0.000565652
1.51888e-06
-2.05617e-11
0.00056797
2.14402e-06
2.14404e-06
0.000545954
3.04041e-06
1.92776e-06
0.000473345
2.27072e-06
9.85656e-07
0.000343292
3.55879e-07
3.42633e-07
0.000144016
1.92317e-05
3.31863e-06
0.000323498
6.56688e-06
-1.59941e-06
0.0004401
1.92134e-06
-6.13257e-06
0.000473248
1.44093e-06
-4.04491e-06
0.000486131
1.31423e-06
-1.70551e-11
0.000488836
1.92782e-06
3.04038e-06
0.000473345
3.36088e-06
3.36097e-06
0.000417729
2.53423e-06
1.8578e-06
0.000305212
3.71878e-07
6.47666e-07
0.000129199
3.18646e-05
0.00011705
1.06321e-05
-1.3249e-06
0.000264976
2.61902e-06
-8.06267e-06
0.000317487
9.20098e-07
-7.08536e-06
0.000341284
5.02054e-07
-3.57157e-06
0.000352159
4.97642e-07
3.08959e-11
0.000354558
9.856e-07
2.27078e-06
0.000343292
1.85781e-06
2.53421e-06
0.000305212
1.53178e-06
1.53169e-06
0.000227497
2.72842e-07
5.48345e-07
0.00010012
5.38664e-06
5.86174e-05
1.94115e-06
-2.03779e-06
0.000110138
7.69208e-07
-2.00368e-06
0.000133628
1.93275e-07
-1.37093e-06
0.00014435
5.1729e-08
-6.57567e-07
0.000148899
1.01169e-07
-5.0358e-11
0.000149278
3.42641e-07
3.55828e-07
0.000144016
6.47676e-07
3.71801e-07
0.000129199
5.48326e-07
2.72906e-07
0.00010012
1.46308e-07
1.4634e-07
4.90399e-05
2.49815e-05
0.000133279
7.43769e-06
0.000113674
2.03779e-06
5.45418e-05
2.97669e-06
1.02565e-05
0.000332852
1.01528e-06
1.10118e-05
0.000320504
-1.94115e-06
8.06268e-06
0.000252733
-9.17234e-07
1.78305e-06
0.000107269
9.03882e-07
6.28533e-12
0.000476085
4.93869e-07
4.62231e-06
0.000472835
-2.61901e-06
6.13259e-06
0.000433073
-5.98392e-06
2.75448e-06
0.0003144
-1.06849e-06
7.54057e-07
0.000132571
-7.90367e-07
-5.16613e-06
0.000561234
-7.75955e-07
5.16773e-12
0.000563254
-1.92132e-06
2.57222e-06
0.000546826
-5.42166e-06
2.09466e-06
0.00047345
-5.40843e-06
9.12844e-07
0.000342401
-9.11253e-07
2.43538e-07
0.00014436
-5.16613e-06
-7.90368e-07
0.000561234
-1.33623e-06
-1.33623e-06
0.000593476
-1.55562e-06
2.54914e-11
0.000596587
-2.39645e-06
1.51884e-06
0.00056797
-3.51713e-06
1.31429e-06
0.000488836
-2.84449e-06
4.97606e-07
0.000354558
-4.7971e-07
1.01123e-07
0.000149278
7.2306e-12
9.03882e-07
0.000476085
7.25325e-12
-7.75959e-07
0.000563254
2.20678e-11
-1.55561e-06
0.000596587
-4.39163e-11
-4.88925e-11
0.000599625
2.2226e-11
1.38273e-06
0.000570046
-2.38876e-11
1.24109e-06
0.000491133
-1.38063e-11
5.33011e-07
0.000356397
2.49881e-12
1.4111e-07
0.000149492
1.02565e-05
2.9767e-06
0.000332852
4.62231e-06
4.93868e-07
0.000472835
2.57222e-06
-1.92132e-06
0.000546826
1.51885e-06
-2.39645e-06
0.00056797
1.38271e-06
1.69012e-11
0.000570046
1.93589e-06
1.93585e-06
0.000545938
2.61987e-06
1.84274e-06
0.000473229
1.81587e-06
9.97914e-07
0.000343355
2.68784e-07
3.58149e-07
0.000143761
2.49815e-05
0.000133279
1.10118e-05
1.01528e-06
0.000320504
6.13259e-06
-2.619e-06
0.000433073
2.09465e-06
-5.42166e-06
0.00047345
1.31426e-06
-3.51718e-06
0.000488836
1.24114e-06
1.28548e-11
0.000491133
1.84266e-06
2.61992e-06
0.000473229
2.87789e-06
2.87788e-06
0.000415689
2.01079e-06
1.65335e-06
0.000303727
2.96733e-07
5.87539e-07
0.000128588
7.43769e-06
0.000113674
8.06268e-06
-1.94115e-06
0.000252733
2.75448e-06
-5.98391e-06
0.0003144
9.1282e-07
-5.40849e-06
0.000342401
4.97636e-07
-2.84436e-06
0.000354558
5.32966e-07
-3.81798e-11
0.000356397
9.97926e-07
1.81584e-06
0.000343355
1.65342e-06
2.0107e-06
0.000303727
1.24596e-06
1.246e-06
0.000226102
2.3935e-07
4.59639e-07
9.95668e-05
2.03779e-06
5.45418e-05
1.78305e-06
-9.17233e-07
0.000107269
7.5404e-07
-1.06853e-06
0.000132571
2.43535e-07
-9.11093e-07
0.00014436
1.01159e-07
-4.79845e-07
0.000149278
1.41116e-07
-3.18622e-11
0.000149492
3.58124e-07
2.68758e-07
0.000143761
5.87527e-07
2.96804e-07
0.000128588
4.59606e-07
2.3941e-07
9.95668e-05
1.27933e-07
1.2791e-07
4.87841e-05
1.32336e-05
0.000137802
6.53906e-06
0.000135193
3.63265e-06
0.000110138
9.17219e-07
5.27074e-05
2.35585e-06
7.74583e-12
0.000334596
1.5027e-06
6.37966e-06
0.000336475
-5.01026e-07
8.96166e-06
0.000317487
-1.78306e-06
5.9839e-06
0.000244331
-4.61034e-07
1.43087e-06
0.000105231
9.03881e-07
-7.19086e-06
0.000476085
5.3789e-07
7.69833e-12
0.000479393
-6.53312e-07
4.45118e-06
0.000473248
-2.75449e-06
5.42164e-06
0.000427739
-4.32873e-06
2.52099e-06
0.000311553
-6.84292e-07
7.55886e-07
0.000131588
-1.89715e-06
-1.89715e-06
0.000550928
-7.75954e-07
-2.58091e-06
0.000563254
-1.38112e-06
1.70158e-11
0.000565652
-2.09468e-06
2.39638e-06
0.000546223
-4.60475e-06
2.01005e-06
0.000473441
-4.15779e-06
9.46341e-07
0.000343011
-6.54209e-07
3.05845e-07
0.000144229
-7.19086e-06
9.03881e-07
0.000476085
-2.58091e-06
-7.75958e-07
0.000563254
-1.55563e-06
-1.55562e-06
0.000596587
-1.51891e-06
-5.88912e-11
0.000599625
-2.14402e-06
1.38278e-06
0.000570046
-3.04045e-06
1.24105e-06
0.000491133
-2.27074e-06
5.3302e-07
0.000356397
-3.55875e-07
1.41107e-07
0.000149492
8.74277e-12
2.35585e-06
0.000334596
1.00169e-11
5.37889e-07
0.000479393
1.38593e-11
-1.38112e-06
0.000565652
-5.38548e-11
-1.51891e-06
0.000599625
6.43486e-11
5.84578e-11
0.00060239
-5.9854e-11
1.27651e-06
0.000571947
3.1668e-13
1.19749e-06
0.000493088
-9.80372e-12
5.63205e-07
0.00035779
1.03448e-11
1.69497e-07
0.000149592
1.32336e-05
0.000137802
6.37966e-06
1.5027e-06
0.000336475
4.45118e-06
-6.53313e-07
0.000473248
2.39638e-06
-2.09467e-06
0.000546223
1.38275e-06
-2.14407e-06
0.000570046
1.27655e-06
-1.72384e-11
0.000571947
1.7574e-06
1.75745e-06
0.000546109
2.24855e-06
1.74008e-06
0.000473117
1.45838e-06
9.8822e-07
0.000343277
2.08399e-07
3.60868e-07
0.000143488
6.53906e-06
0.000135193
8.96167e-06
-5.01027e-07
0.000317487
5.42164e-06
-2.75449e-06
0.000427739
2.01002e-06
-4.60481e-06
0.000473441
1.24111e-06
-3.04032e-06
0.000491133
1.19741e-06
-2.54242e-11
0.000493089
1.7401e-06
2.24854e-06
0.000473117
2.46844e-06
2.46836e-06
0.000414059
1.61766e-06
1.4688e-06
0.000302474
2.46119e-07
5.29253e-07
0.000128052
3.63265e-06
0.000110138
5.9839e-06
-1.78306e-06
0.000244331
2.52095e-06
-4.32878e-06
0.000311553
9.46412e-07
-4.15764e-06
0.000343011
5.32964e-07
-2.27085e-06
0.000356397
5.63222e-07
-3.69559e-11
0.00035779
9.88264e-07
1.45834e-06
0.000343277
1.46878e-06
1.6177e-06
0.000302474
1.03279e-06
1.03287e-06
0.000224956
2.14034e-07
3.89443e-07
9.90913e-05
9.1722e-07
5.27074e-05
1.43084e-06
-4.61058e-07
0.000105231
7.5593e-07
-6.84166e-07
0.000131588
3.05843e-07
-6.54382e-07
0.000144229
1.41115e-07
-3.5589e-07
0.000149492
1.69453e-07
5.9942e-11
0.000149592
3.60863e-07
2.08457e-07
0.000143488
5.29245e-07
2.46178e-07
0.000128052
3.89453e-07
2.13994e-07
9.90913e-05
1.12885e-07
1.12856e-07
4.85583e-05
9.69811e-12
0.000138666
3.7047e-06
0.000142139
3.64095e-06
0.000134683
2.00365e-06
0.000107269
4.61037e-07
5.17853e-05
2.35585e-06
-1.02565e-05
0.000334596
1.45616e-06
9.67968e-12
0.000340058
-2.01422e-08
5.4173e-06
0.000339386
-7.69213e-07
7.08535e-06
0.0003144
-1.43087e-06
4.32874e-06
0.000238536
-3.3655e-07
1.1745e-06
0.000103708
1.06137e-06
-1.2126e-05
0.000472565
5.37889e-07
-4.6223e-06
0.000479393
-4.68715e-07
7.38764e-12
0.000482932
-9.2009e-07
4.04488e-06
0.00047345
-2.52098e-06
4.60479e-06
0.000423571
-3.21759e-06
2.29186e-06
0.000309077
-5.04677e-07
7.45014e-07
0.000130694
-1.2126e-05
1.06137e-06
0.000472565
-1.18072e-06
-1.18072e-06
0.000548128
-1.38113e-06
-2.5722e-06
0.000565652
-1.44091e-06
-3.90584e-11
0.00056797
-2.01002e-06
2.14413e-06
0.000545954
-3.92635e-06
1.92767e-06
0.000473345
-3.23091e-06
9.85678e-07
0.000343292
-4.85243e-07
3.4263e-07
0.000144016
-1.02565e-05
2.35585e-06
0.000334596
-4.62229e-06
5.37888e-07
0.000479393
-2.57221e-06
-1.38113e-06
0.000565652
-1.51889e-06
-1.51889e-06
0.000599625
-1.38267e-06
7.37022e-11
0.00060239
-1.93596e-06
1.27648e-06
0.000571947
-2.61988e-06
1.1975e-06
0.000493088
-1.81588e-06
5.63208e-07
0.00035779
-2.68765e-07
1.69498e-07
0.000149592
1.0808e-11
0.000138666
1.26669e-11
1.45616e-06
0.000340058
5.08903e-12
-4.68717e-07
0.000482932
-3.38733e-11
-1.4409e-06
0.00056797
7.94338e-11
-1.38272e-06
0.00060239
-9.36939e-11
-4.80338e-11
0.000604944
9.84798e-12
1.19071e-06
0.00057371
-5.59446e-12
1.15302e-06
0.000494747
2.25061e-12
5.85612e-07
0.000358832
3.24418e-12
1.90203e-07
0.00014961
3.70471e-06
0.000142139
5.41731e-06
-2.01455e-08
0.000339386
4.04489e-06
-9.20084e-07
0.00047345
2.1441e-06
-2.01008e-06
0.000545954
1.27652e-06
-1.93583e-06
0.000571947
1.19066e-06
-2.09639e-11
0.00057371
1.59258e-06
1.59256e-06
0.000546404
1.92645e-06
1.62907e-06
0.000473018
1.17951e-06
9.6468e-07
0.000343112
1.66385e-07
3.55252e-07
0.000143213
3.64095e-06
0.000134683
7.08535e-06
-7.69212e-07
0.0003144
4.60474e-06
-2.52101e-06
0.000423571
1.92776e-06
-3.92621e-06
0.000473345
1.19741e-06
-2.61998e-06
0.000493089
1.15304e-06
-2.77289e-11
0.000494747
1.62914e-06
1.92641e-06
0.000473018
2.12467e-06
2.1247e-06
0.000412747
1.32067e-06
1.30506e-06
0.00030141
2.10818e-07
4.74998e-07
0.00012758
2.00365e-06
0.000107269
4.32869e-06
-1.43088e-06
0.000238536
2.29197e-06
-3.21747e-06
0.000309077
9.85593e-07
-3.23104e-06
0.000343292
5.63222e-07
-1.81592e-06
0.00035779
5.85643e-07
3.60042e-11
0.000358832
9.64659e-07
1.17954e-06
0.000343112
1.305e-06
1.32075e-06
0.00030141
8.70364e-07
8.70353e-07
0.000223994
1.93646e-07
3.33466e-07
9.86771e-05
4.61009e-07
5.17853e-05
1.17458e-06
-3.36486e-07
0.000103708
7.44971e-07
-5.04819e-07
0.000130694
3.42628e-07
-4.85242e-07
0.000144016
1.69464e-07
-2.68644e-07
0.000149592
1.90202e-07
3.2887e-11
0.00014961
3.55269e-07
1.66406e-07
0.000143213
4.75006e-07
2.1077e-07
0.00012758
3.33493e-07
1.93591e-07
9.86771e-05
1.00395e-07
1.004e-07
4.83575e-05
-1.32335e-05
0.000138666
8.95215e-12
0.000143827
2.22319e-06
0.000143536
2.29011e-06
0.000133628
1.06848e-06
0.000105231
3.36477e-07
5.11123e-05
2.97669e-06
-1.92317e-05
0.000332852
1.45616e-06
-6.37964e-06
0.000340058
-2.34367e-08
7.18207e-12
0.00034503
-2.14872e-07
4.48253e-06
0.000341284
-7.54069e-07
5.40843e-06
0.000311553
-1.17457e-06
3.21745e-06
0.00023445
-2.83958e-07
9.74377e-07
0.000102513
-1.84937e-06
-1.84938e-06
0.000450035
4.93868e-07
-6.56687e-06
0.000472835
-4.68717e-07
-4.45116e-06
0.000482932
-5.95187e-07
-9.91487e-12
0.000486131
-9.12879e-07
3.51718e-06
0.000473441
-2.29196e-06
3.92621e-06
0.000420302
-2.4606e-06
2.07441e-06
0.000306977
-3.93743e-07
7.04275e-07
0.000129898
-1.92317e-05
2.97669e-06
0.000332852
-6.56686e-06
4.93866e-07
0.000472835
-1.92134e-06
-1.92133e-06
0.000546826
-1.44087e-06
-2.39641e-06
0.00056797
-1.31433e-06
4.72509e-11
0.000570046
-1.92779e-06
1.93577e-06
0.000545938
-3.3609e-06
1.84276e-06
0.000473229
-2.53424e-06
9.97919e-07
0.000343355
-3.71865e-07
3.58152e-07
0.000143761
-1.32335e-05
0.000138666
-6.37964e-06
1.45616e-06
0.000340058
-4.45116e-06
-4.68718e-07
0.000482932
-2.39641e-06
-1.44087e-06
0.00056797
-1.3827e-06
-1.38275e-06
0.00060239
-1.27665e-06
-5.94873e-11
0.000604944
-1.7574e-06
1.19071e-06
0.00057371
-2.24857e-06
1.15304e-06
0.000494747
-1.45837e-06
5.85607e-07
0.000358832
-2.08391e-07
1.90204e-07
0.00014961
1.19421e-11
0.000143827
4.68202e-12
-2.34413e-08
0.00034503
-7.42161e-12
-5.95183e-07
0.000486131
5.1338e-11
-1.31439e-06
0.000570046
-1.04958e-10
-1.27652e-06
0.000604944
1.27648e-11
-2.12361e-11
0.000607325
1.2735e-11
1.1092e-06
0.000575347
-6.62287e-12
1.10818e-06
0.000496151
3.17726e-12
6.02343e-07
0.0003596
-4.91829e-12
2.0463e-07
0.000149572
2.22319e-06
0.000143536
4.48253e-06
-2.14874e-07
0.000341284
3.51715e-06
-9.12897e-07
0.000473441
1.93582e-06
-1.92766e-06
0.000545938
1.19066e-06
-1.7575e-06
0.00057371
1.10921e-06
-1.09366e-11
0.000575347
1.4412e-06
1.44117e-06
0.00054678
1.65125e-06
1.51789e-06
0.000472938
9.6234e-07
9.31089e-07
0.000342894
1.36744e-07
3.44066e-07
0.000142943
2.29011e-06
0.000133628
5.40838e-06
-7.54067e-07
0.000311553
3.92632e-06
-2.2919e-06
0.000420302
1.84265e-06
-3.36102e-06
0.000473229
1.15305e-06
-2.24861e-06
0.000494747
1.10825e-06
2.67445e-11
0.000496151
1.51787e-06
1.65128e-06
0.000472938
1.83668e-06
1.83675e-06
0.000411684
1.09412e-06
1.16096e-06
0.0003005
1.85262e-07
4.25735e-07
0.000127163
1.06844e-06
0.000105231
3.21757e-06
-1.17454e-06
0.00023445
2.07429e-06
-2.46071e-06
0.000306977
9.97916e-07
-2.53427e-06
0.000343355
5.8565e-07
-1.45827e-06
0.000358832
6.02321e-07
3.13023e-11
0.0003596
9.31053e-07
9.62376e-07
0.000342894
1.16096e-06
1.09411e-06
0.0003005
7.43972e-07
7.43917e-07
0.000223173
1.7654e-07
2.88407e-07
9.83125e-05
3.36549e-07
5.11123e-05
9.74303e-07
-2.84033e-07
0.000102513
7.04264e-07
-3.93731e-07
0.000129898
3.58153e-07
-3.71719e-07
0.000143761
1.90204e-07
-2.08394e-07
0.00014961
2.04663e-07
-4.0839e-11
0.000149572
3.44075e-07
1.36698e-07
0.000142943
4.25745e-07
1.85205e-07
0.000127163
2.88411e-07
1.76547e-07
9.83125e-05
8.9912e-08
8.99341e-08
4.81777e-05
-2.49815e-05
0.000137802
-3.70469e-06
0.000143827
4.62623e-12
0.000146027
1.4887e-06
0.000144123
1.37086e-06
0.000132571
6.84185e-07
0.000103708
2.84044e-07
5.05443e-05
3.31863e-06
-2.21057e-05
0.000323498
1.5027e-06
-1.10117e-05
0.000336475
-2.34361e-08
-5.41729e-06
0.00034503
-1.32742e-07
4.72353e-13
0.00034905
-1.93293e-07
3.5715e-06
0.000342401
-7.55905e-07
4.15767e-06
0.000309077
-9.74314e-07
2.46071e-06
0.000231477
-2.37694e-07
8.02838e-07
0.000101554
-2.21057e-05
3.31863e-06
0.000323498
-1.59941e-06
-1.59941e-06
0.0004401
-6.53323e-07
-6.13257e-06
0.000473248
-5.95173e-07
-4.0449e-06
0.000486131
-5.02169e-07
-2.2574e-12
0.000488836
-9.46368e-07
3.04031e-06
0.000473345
-2.07433e-06
3.361e-06
0.000417729
-1.92192e-06
1.8578e-06
0.000305212
-3.2086e-07
6.47671e-07
0.000129199
-2.49815e-05
0.000137802
-1.10117e-05
1.5027e-06
0.000336475
-6.13258e-06
-6.53321e-07
0.000473248
-2.09462e-06
-2.09462e-06
0.000546223
-1.31438e-06
-2.14412e-06
0.000570046
-1.24109e-06
-4.08029e-11
0.000571947
-1.84268e-06
1.75746e-06
0.000546109
-2.8779e-06
1.74012e-06
0.000473117
-2.01079e-06
9.88209e-07
0.000343277
-2.96723e-07
3.60872e-07
0.000143488
-3.70468e-06
0.000143827
-5.4173e-06
-2.34402e-08
0.00034503
-4.0449e-06
-5.95172e-07
0.000486131
-2.14407e-06
-1.31444e-06
0.000570046
-1.27663e-06
-1.27649e-06
0.000604944
-1.19065e-06
-2.06594e-11
0.000607325
-1.59257e-06
1.10922e-06
0.000575347
-1.92646e-06
1.10817e-06
0.000496151
-1.1795e-06
6.02341e-07
0.0003596
-1.66394e-07
2.0463e-07
0.000149572
5.47965e-13
0.000146027
3.5159e-13
-1.32746e-07
0.00034905
6.53203e-12
-5.02171e-07
0.000488836
-8.21489e-11
-1.24096e-06
0.000571947
1.32423e-11
-1.19076e-06
0.000607325
3.1679e-11
7.11221e-12
0.000609543
-1.29822e-11
1.0328e-06
0.000576864
-9.8269e-13
1.06537e-06
0.000497339
-3.7594e-12
6.12362e-07
0.000360155
-2.75324e-12
2.13656e-07
0.000149495
1.48871e-06
0.000144123
3.57147e-06
-1.93269e-07
0.000342401
3.04037e-06
-9.46344e-07
0.000473345
1.7574e-06
-1.84279e-06
0.000546109
1.10923e-06
-1.59261e-06
0.000575347
1.03284e-06
2.44505e-11
0.000576864
1.30411e-06
1.30413e-06
0.000547207
1.41791e-06
1.40929e-06
0.000472878
7.92932e-07
8.90543e-07
0.000342649
1.15525e-07
3.29441e-07
0.000142683
1.37082e-06
0.000132571
4.15778e-06
-7.55917e-07
0.000309077
3.36088e-06
-2.07439e-06
0.000417729
1.74012e-06
-2.87794e-06
0.000473117
1.10825e-06
-1.92636e-06
0.000496151
1.06534e-06
2.26627e-11
0.000497339
1.40923e-06
1.41795e-06
0.000472878
1.59533e-06
1.59533e-06
0.000410815
9.19298e-07
1.0349e-06
0.000299716
1.6609e-07
3.81684e-07
0.000126791
6.84291e-07
0.000103708
2.46058e-06
-9.74362e-07
0.000231477
1.85778e-06
-1.92193e-06
0.000305212
9.88282e-07
-2.01066e-06
0.000343277
6.02323e-07
-1.17948e-06
0.0003596
6.12336e-07
-2.39365e-11
0.000360155
8.90551e-07
7.9291e-07
0.000342649
1.03494e-06
9.19241e-07
0.000299716
6.43703e-07
6.43686e-07
0.000222462
1.61802e-07
2.51726e-07
9.79889e-05
2.83961e-07
5.05443e-05
8.02829e-07
-2.3768e-07
0.000101554
6.4771e-07
-3.20746e-07
0.000129199
3.60874e-07
-2.96747e-07
0.000143488
2.04656e-07
-1.66483e-07
0.000149572
2.13664e-07
-3.84486e-11
0.000149495
3.29432e-07
1.15496e-07
0.000142683
3.81682e-07
1.66102e-07
0.000126791
2.5171e-07
1.61843e-07
9.79889e-05
8.10069e-08
8.10155e-08
4.80157e-05
-3.18646e-05
0.000133279
-6.53905e-06
0.000142139
-2.22318e-06
0.000146027
-1.0653e-11
0.000147383
9.50131e-07
0.00014435
9.11157e-07
0.000131588
5.04805e-07
0.000102513
2.37664e-07
5.00689e-05
-1.005e-06
-1.005e-06
0.00028359
1.01527e-06
-1.06321e-05
0.000320504
-2.01433e-08
-8.96165e-06
0.000339386
-1.32746e-07
-4.48254e-06
0.00034905
-3.98249e-08
-4.08225e-11
0.000352159
-2.43514e-07
2.84442e-06
0.000343011
-7.45004e-07
3.231e-06
0.000306977
-8.02854e-07
1.92189e-06
0.000229239
-1.98927e-07
6.61017e-07
0.000100771
-3.18646e-05
0.000133279
-1.06321e-05
1.01527e-06
0.000320504
-2.61902e-06
-2.61901e-06
0.000433073
-9.20059e-07
-5.42163e-06
0.00047345
-5.022e-07
-3.51722e-06
0.000488836
-4.97535e-07
-6.58296e-13
0.000491133
-9.85644e-07
2.61995e-06
0.000473229
-1.85781e-06
2.87789e-06
0.000415689
-1.53179e-06
1.65334e-06
0.000303727
-2.72832e-07
5.87543e-07
0.000128588
-6.53904e-06
0.000142139
-8.96166e-06
-2.01447e-08
0.000339386
-5.42164e-06
-9.20057e-07
0.00047345
-2.01011e-06
-2.01017e-06
0.000545954
-1.24105e-06
-1.93576e-06
0.000571947
-1.19743e-06
-1.79586e-11
0.00057371
-1.74013e-06
1.5926e-06
0.000546404
-2.46844e-06
1.62905e-06
0.000473018
-1.61766e-06
9.64679e-07
0.000343112
-2.46126e-07
3.55251e-07
0.000143213
-2.22319e-06
0.000146027
-4.48254e-06
-1.32749e-07
0.00034905
-3.51715e-06
-5.02196e-07
0.000488836
-1.93591e-06
-1.24092e-06
0.000571947
-1.19064e-06
-1.19076e-06
0.000607325
-1.10919e-06
1.26895e-11
0.000609543
-1.44122e-06
1.0328e-06
0.000576864
-1.65125e-06
1.06536e-06
0.000497339
-9.62347e-07
6.12364e-07
0.000360155
-1.3675e-07
2.13655e-07
0.000149495
-9.25255e-12
0.000147383
-2.33123e-11
-3.97822e-08
0.000352159
-4.49328e-11
-4.97541e-07
0.000491133
1.25e-11
-1.19753e-06
0.00057371
3.72101e-11
-1.10923e-06
0.000609543
-1.66207e-11
2.35609e-11
0.000611609
-1.02231e-11
9.62958e-07
0.00057827
-1.31259e-12
1.02306e-06
0.000498347
-5.32926e-12
6.15522e-07
0.000360546
2.10543e-12
2.18298e-07
0.000149392
9.50114e-07
0.00014435
2.84447e-06
-2.43578e-07
0.000343011
2.61988e-06
-9.85661e-07
0.000473229
1.59261e-06
-1.74016e-06
0.000546404
1.03284e-06
-1.44112e-06
0.000576864
9.62934e-07
1.34611e-11
0.00057827
1.18013e-06
1.18016e-06
0.000547665
1.22101e-06
1.30505e-06
0.000472838
6.60294e-07
8.46008e-07
0.000342391
1.00128e-07
3.12895e-07
0.000142436
9.11248e-07
0.000131588
3.23088e-06
-7.44997e-07
0.000306977
2.87789e-06
-1.85782e-06
0.000415689
1.62915e-06
-2.46833e-06
0.000473018
1.06534e-06
-1.65123e-06
0.000497339
1.023e-06
-2.12427e-11
0.000498347
1.30506e-06
1.221e-06
0.000472838
1.39286e-06
1.39282e-06
0.000410099
7.82699e-07
9.24904e-07
0.000299034
1.51197e-07
3.42618e-07
0.000126459
5.04671e-07
0.000102513
1.92189e-06
-8.02848e-07
0.000229239
1.65345e-06
-1.53169e-06
0.000303727
9.6467e-07
-1.61765e-06
0.000343112
6.1233e-07
-9.62422e-07
0.000360155
6.15533e-07
-3.47555e-11
0.000360546
8.46035e-07
6.6026e-07
0.000342391
9.24918e-07
7.82685e-07
0.000299034
5.62769e-07
5.62798e-07
0.00022184
1.48862e-07
2.21511e-07
9.76995e-05
2.37677e-07
5.00689e-05
6.61082e-07
-1.98869e-07
0.000100771
5.87546e-07
-2.72864e-07
0.000128588
3.55251e-07
-2.46232e-07
0.000143213
2.1366e-07
-1.3677e-07
0.000149495
2.18277e-07
1.51792e-11
0.000149392
3.12884e-07
1.0015e-07
0.000142436
3.42611e-07
1.51242e-07
0.000126459
2.21498e-07
1.4888e-07
9.76995e-05
7.33468e-08
7.3337e-08
4.7869e-05
-2.68431e-05
0.00011705
-7.43768e-06
0.000135193
-3.64094e-06
0.000143536
-1.48873e-06
0.000147383
-3.94835e-11
0.000148293
6.57658e-07
0.00014436
6.54319e-07
0.000130694
3.93695e-07
0.000101554
1.98877e-07
4.96711e-05
-2.68431e-05
0.00011705
-1.3249e-06
-1.32491e-06
0.000264976
-5.01028e-07
-8.06267e-06
0.000317487
-2.14877e-07
-7.08536e-06
0.000341284
-3.98115e-08
-3.57156e-06
0.000352159
-5.17221e-08
4.19687e-11
0.000354558
-3.05882e-07
2.27079e-06
0.000343292
-7.04286e-07
2.53421e-06
0.000305212
-6.61068e-07
1.53169e-06
0.000227497
-1.69248e-07
5.48349e-07
0.00010012
-7.43768e-06
0.000135193
-8.06267e-06
-5.01027e-07
0.000317487
-2.75447e-06
-2.75447e-06
0.000427739
-9.12925e-07
-4.60486e-06
0.000473441
-4.97502e-07
-3.04026e-06
0.000491133
-5.33023e-07
-1.85214e-11
0.000493089
-9.97951e-07
2.24857e-06
0.000473117
-1.65342e-06
2.46835e-06
0.000414059
-1.24596e-06
1.4688e-06
0.000302474
-2.39352e-07
5.29252e-07
0.000128052
-3.64095e-06
0.000143536
-7.08536e-06
-2.14878e-07
0.000341284
-4.60479e-06
-9.12946e-07
0.000473441
-1.92772e-06
-1.92757e-06
0.000545938
-1.19743e-06
-1.75751e-06