/*--------------------------------*- C++ -*----------------------------------*\
  =========                 |
  \\      /  F ield         | OpenFOAM: The Open Source CFD Toolbox
   \\    /   O peration     | Website:  https://openfoam.org
    \\  /    A nd           | Version:  12
     \\/     M anipulation  |
\*---------------------------------------------------------------------------*/
FoamFile
{
    format      ascii;
    class       volVectorField;
    location    "500";
    object      U;
}
// * * * * * * * * * * * * * * * * * * * * * * * * * * * * * * * * * * * * * //

dimensions      [0 1 -1 0 0 0 0];

internalField   nonuniform List<vector> 
10000
(
(0.0139132 0.0139132 0.699812)
(0.0298373 0.00308426 1.11185)
(0.00308426 0.0298373 1.11185)
(0.00228314 0.00228313 0.609228)
(0.029984 -0.00214286 1.24591)
(0.0116733 0.0116733 2.89393)
(0.0079695 -0.000126172 1.14898)
(-0.00214286 0.029984 1.24591)
(-0.000126171 0.0079695 1.14898)
(0.00052519 0.000525189 0.563857)
(0.0198968 -0.00261844 1.27903)
(0.0208395 -0.000112299 3.19978)
(0.00847972 -0.0010713 1.34421)
(-0.000112298 0.0208395 3.19978)
(0.00613479 0.00613479 2.71707)
(0.00330775 6.03548e-05 1.1239)
(-0.00261844 0.0198968 1.27903)
(-0.0010713 0.00847972 1.34421)
(6.03553e-05 0.00330775 1.1239)
(0.000115188 0.000115189 0.534396)
(0.00687533 -0.00231168 1.28297)
(0.0156889 -0.00192464 3.26131)
(0.00564263 -0.00103789 1.40248)
(0.00719252 0.00719252 4.51868)
(0.0132948 -0.000888483 3.21372)
(0.00428817 -9.11445e-06 1.35739)
(-0.00192464 0.0156889 3.26131)
(-0.000888482 0.0132948 3.21372)
(0.00486206 0.00486206 2.58163)
(0.0016092 0.000159692 1.08623)
(-0.00231168 0.00687532 1.28297)
(-0.00103789 0.00564262 1.40248)
(-9.11443e-06 0.00428817 1.35739)
(0.000159692 0.0016092 1.08623)
(2.33153e-05 2.33233e-05 0.52118)
(-0.0068753 -0.00231168 1.28297)
(0.00541658 -0.00143856 3.27074)
(0.00196759 -0.000941343 1.41466)
(0.00991696 0.000757123 4.68678)
(0.00991751 -0.00176078 3.34086)
(0.00320036 3.00002e-05 1.43679)
(0.000757124 0.00991696 4.68678)
(0.00510381 0.00510381 4.43629)
(0.0102994 0.000563878 3.19471)
(0.00255924 0.000147391 1.34337)
(-0.00143856 0.00541658 3.27074)
(-0.00176078 0.00991751 3.34086)
(0.00056388 0.0102994 3.19471)
(0.00376621 0.00376621 2.47887)
(0.000790348 0.000190266 1.06056)
(-0.00231168 -0.0068753 1.28297)
(-0.000941342 0.00196759 1.41466)
(2.99995e-05 0.00320036 1.43679)
(0.00014739 0.00255924 1.34337)
(0.000190259 0.00079037 1.06056)
(4.23921e-05 4.23707e-05 0.513997)
(-0.0198968 -0.00261844 1.27903)
(-0.00541656 -0.00143856 3.27074)
(-0.00196756 -0.000941342 1.41466)
(0.00393768 3.57136e-05 4.7081)
(0.00341297 -0.00146782 3.36629)
(0.00118473 6.38132e-05 1.45772)
(0.00374978 0.00374978 5.49415)
(0.00733293 0.000325288 4.72052)
(0.00804408 -0.000258086 3.38609)
(0.00212866 9.18659e-05 1.44108)
(3.57145e-05 0.00393767 4.7081)
(0.00032529 0.00733293 4.72052)
(0.0051267 0.0051267 4.36414)
(0.00785606 0.00113248 3.16032)
(0.00148935 0.000141997 1.33052)
(-0.00143856 -0.00541657 3.27074)
(-0.00146781 0.00341297 3.36629)
(-0.000258086 0.00804408 3.38609)
(0.00113248 0.00785606 3.16032)
(0.0027671 0.00276712 2.40889)
(0.000504934 0.00022978 1.04353)
(-0.00261844 -0.0198968 1.27903)
(-0.000941342 -0.00196757 1.41466)
(6.38121e-05 0.00118473 1.45772)
(9.18656e-05 0.00212867 1.44108)
(0.000141996 0.00148938 1.33052)
(0.0002298 0.000504876 1.04353)
(5.42444e-05 5.42786e-05 0.508061)
(-0.029984 -0.00214286 1.24591)
(-0.0156889 -0.00192464 3.26131)
(-0.0056426 -0.00103789 1.40248)
(-0.00393766 3.57147e-05 4.7081)
(-0.00341295 -0.00146781 3.36629)
(-0.00118473 6.38128e-05 1.45772)
(0.0026435 0.00166186 5.57052)
(0.00280706 8.03153e-05 4.77002)
(0.00288142 -0.00019855 3.43179)
(0.000824295 8.12577e-05 1.47006)
(0.00166186 0.0026435 5.57052)
(0.00281563 0.00281563 5.48515)
(0.0066557 0.00122245 4.73409)
(0.00653736 0.000242357 3.4069)
(0.00136178 2.89083e-05 1.44271)
(3.57154e-05 -0.00393766 4.7081)
(8.03168e-05 0.00280705 4.77002)
(0.00122246 0.0066557 4.73409)
(0.00471632 0.00471632 4.30176)
(0.00581116 0.00121465 3.12866)
(0.000969286 0.000171203 1.3204)
(-0.00192464 -0.0156889 3.26131)
(-0.00146781 -0.00341295 3.36629)
(-0.00019855 0.00288143 3.43179)
(0.000242356 0.00653736 3.4069)
(0.00121463 0.00581119 3.12867)
(0.0020951 0.00209505 2.36139)
(0.000392282 0.000236652 1.03045)
(-0.00214286 -0.029984 1.24591)
(-0.00103789 -0.0056426 1.40248)
(6.38122e-05 -0.00118472 1.45772)
(8.12574e-05 0.000824294 1.47006)
(2.89133e-05 0.0013618 1.44271)
(0.000171206 0.000969215 1.3204)
(0.000236621 0.000392373 1.03045)
(5.1998e-05 5.198e-05 0.502892)
(-0.0298373 0.00308426 1.11185)
(-0.0208395 -0.000112294 3.19978)
(-0.0084797 -0.0010713 1.34421)
(-0.00991695 0.000757126 4.68678)
(-0.00991749 -0.00176078 3.34086)
(-0.00320036 2.99997e-05 1.43679)
(-0.00264348 0.00166186 5.57052)
(-0.00280703 8.03159e-05 4.77002)
(-0.00288141 -0.000198551 3.43179)
(-0.000824317 8.12582e-05 1.47006)
(0.00120437 0.00120437 5.86463)
(0.00212498 0.00155262 5.61551)
(0.00257356 0.000889672 4.81534)
(0.00244395 0.000125661 3.47415)
(0.000548795 -1.40359e-05 1.47894)
(0.00166186 -0.00264348 5.57052)
(0.00155262 0.00212498 5.61551)
(0.00296686 0.00296686 5.47531)
(0.00588426 0.00150567 4.73518)
(0.0051599 0.000333636 3.41974)
(0.000942794 4.22947e-05 1.4438)
(0.000757127 -0.00991695 4.68678)
(8.0317e-05 -0.00280704 4.77002)
(0.000889674 0.00257356 4.81534)
(0.00150567 0.00588426 4.73518)
(0.00407155 0.00407158 4.25383)
(0.00434093 0.00122545 3.10202)
(0.000692356 0.000192893 1.31119)
(-0.000112294 -0.0208395 3.19978)
(-0.00176078 -0.00991749 3.34086)
(-0.00019855 -0.00288141 3.43179)
(0.000125659 0.00244394 3.47415)
(0.00033363 0.00515993 3.41974)
(0.00122549 0.00434086 3.10202)
(0.00164582 0.0016459 2.32745)
(0.000321239 0.000215594 1.01988)
(0.00308426 -0.0298373 1.11185)
(-0.0010713 -0.0084797 1.34421)
(3.00003e-05 -0.00320035 1.43679)
(8.12563e-05 -0.000824321 1.47006)
(-1.40264e-05 0.000548799 1.47894)
(4.22807e-05 0.000942749 1.4438)
(0.00019288 0.00069247 1.31119)
(0.000215607 0.0003212 1.01988)
(4.67626e-05 4.6741e-05 0.498558)
(-0.0139132 0.0139132 0.699812)
(-0.0116733 0.0116733 2.89393)
(-0.00796949 -0.000126169 1.14898)
(-0.00719251 0.00719253 4.51868)
(-0.0132948 -0.000888479 3.21372)
(-0.00428817 -9.11506e-06 1.35739)
(-0.00374977 0.00374978 5.49415)
(-0.00733291 0.000325291 4.72052)
(-0.00804407 -0.000258087 3.38609)
(-0.00212869 9.18661e-05 1.44108)
(-0.00120435 0.00120437 5.86463)
(-0.00212496 0.00155262 5.61551)
(-0.00257355 0.000889674 4.81534)
(-0.00244395 0.000125661 3.47415)
(-0.000548853 -1.40392e-05 1.47894)
(0.00120437 -0.00120436 5.86463)
(0.00111999 0.00111999 5.91431)
(0.00199553 0.00190325 5.64726)
(0.00234824 0.00102718 4.84762)
(0.00200339 0.000103561 3.50782)
(0.000391651 -1.82079e-05 1.48643)
(0.00374978 -0.00374977 5.49415)
(0.00155262 -0.00212496 5.61551)
(0.00190326 0.00199553 5.64726)
(0.00287518 0.00287517 5.46515)
(0.00503767 0.00149379 4.7346)
(0.0040772 0.00042039 3.42792)
(0.000690976 7.23962e-05 1.44324)
(0.00719253 -0.00719251 4.51868)
(0.000325291 -0.00733291 4.72052)
(0.000889677 -0.00257355 4.81534)
(0.00102718 0.00234824 4.84762)
(0.00149376 0.0050377 4.7346)
(0.00350793 0.00350787 4.21728)
(0.00329911 0.00120525 3.07939)
(0.000517073 0.000192606 1.30275)
(0.0116733 -0.0116733 2.89393)
(-0.00088848 -0.0132948 3.21372)
(-0.000258084 -0.00804406 3.38609)
(0.000125657 -0.00244396 3.47415)
(0.000103566 0.0020034 3.50782)
(0.000420399 0.00407715 3.42792)
(0.0012052 0.00329922 3.07939)
(0.00132156 0.00132155 2.30214)
(0.000270438 0.000185954 1.01128)
(0.0139132 -0.0139132 0.699812)
(-0.000126169 -0.00796949 1.14898)
(-9.11354e-06 -0.00428816 1.35739)
(9.18645e-05 -0.00212869 1.44108)
(-1.40275e-05 -0.000548877 1.47894)
(-1.82325e-05 0.000391668 1.48643)
(7.2404e-05 0.00069106 1.44324)
(0.000192618 0.000517024 1.30275)
(0.000185977 0.000270371 1.01128)
(4.19118e-05 4.19332e-05 0.49491)
(-0.00308425 0.0298373 1.11185)
(-0.00228313 0.00228314 0.609228)
(0.000112309 0.0208395 3.19978)
(-0.00613478 0.0061348 2.71707)
(-0.00330775 6.03545e-05 1.1239)
(-0.000757112 0.00991696 4.68678)
(-0.00510379 0.00510381 4.43629)
(-0.0102994 0.000563878 3.19471)
(-0.00255926 0.000147388 1.34337)
(-0.00166184 0.0026435 5.57052)
(-0.00281561 0.00281563 5.48516)
(-0.00665569 0.00122246 4.73409)
(-0.00653737 0.000242357 3.4069)
(-0.00136183 2.89012e-05 1.44271)
(-0.00120435 -0.00120436 5.86463)
(-0.00111997 0.00111999 5.91431)
(-0.00199552 0.00190326 5.64726)
(-0.00234824 0.00102717 4.84762)
(-0.00200344 0.000103562 3.50782)
(-0.000391665 -1.82068e-05 1.48643)
(0.0026435 -0.00166184 5.57052)
(0.00111999 -0.00111998 5.91431)
(0.00118989 0.00118989 5.95287)
(0.00180702 0.00188658 5.66968)
(0.00207978 0.000926914 4.87577)
(0.00163447 0.000128862 3.535)
(0.000292535 5.91931e-06 1.49139)
(0.00991696 -0.000757112 4.68678)
(0.00281563 -0.00281562 5.48515)
(0.00190326 -0.00199552 5.64726)
(0.00188658 0.00180701 5.66968)
(0.00264372 0.00264375 5.46)
(0.00430507 0.00148273 4.73391)
(0.00323569 0.000509881 3.43219)
(0.000517524 8.94213e-05 1.44141)
(0.0208395 0.000112309 3.19978)
(0.00510381 -0.0051038 4.43629)
(0.00122246 -0.00665568 4.73409)
(0.00102717 -0.00234824 4.84762)
(0.000926899 0.0020798 4.87577)
(0.00148278 0.00430502 4.73391)
(0.0030327 0.00303279 4.18866)
(0.00254773 0.00114766 3.06021)
(0.000402029 0.000180369 1.29528)
(0.0298373 -0.00308425 1.11185)
(0.00613479 -0.00613478 2.71707)
(0.000563883 -0.0102994 3.19471)
(0.000242354 -0.00653737 3.4069)
(0.000103569 -0.00200347 3.50782)
(0.000128854 0.00163448 3.535)
(0.000509856 0.00323577 3.43219)
(0.00114767 0.00254772 3.06021)
(0.00107956 0.00107949 2.28269)
(0.000234456 0.000157485 1.00419)
(0.00228314 -0.00228313 0.609228)
(6.03563e-05 -0.00330774 1.1239)
(0.000147388 -0.00255926 1.34337)
(2.89036e-05 -0.00136187 1.44271)
(-1.82288e-05 -0.000391571 1.48643)
(5.93895e-06 0.000292541 1.49139)
(8.94334e-05 0.000517474 1.44141)
(0.000180375 0.000401946 1.29528)
(0.000157468 0.000234507 1.00419)
(3.75289e-05 3.75443e-05 0.49178)
(0.00214287 0.029984 1.24591)
(0.000126175 0.0079695 1.14898)
(-0.00052519 0.000525188 0.563857)
(0.00192465 0.0156889 3.26131)
(0.000888495 0.0132948 3.21372)
(-0.00486206 0.00486206 2.58163)
(-0.00160921 0.000159687 1.08623)
(-3.57013e-05 0.00393768 4.7081)
(-0.000325273 0.00733293 4.72052)
(-0.00512669 0.0051267 4.36414)
(-0.00785607 0.00113247 3.16032)
(-0.00148939 0.000141991 1.33052)
(-0.00166184 -0.00264349 5.57052)
(-0.0015526 0.00212498 5.61551)
(-0.00296685 0.00296687 5.47531)
(-0.00588427 0.00150566 4.73518)
(-0.00515994 0.000333634 3.41974)
(-0.00094281 4.2296e-05 1.4438)
(-0.00264348 -0.00166184 5.57052)
(-0.00111997 -0.00111998 5.91431)
(-0.00118986 0.0011899 5.95287)
(-0.00180704 0.00188655 5.66968)
(-0.00207981 0.000926935 4.87577)
(-0.00163449 0.000128851 3.535)
(-0.000292554 5.92106e-06 1.49139)
(0.00393768 -3.57015e-05 4.7081)
(0.00212498 -0.0015526 5.61551)
(0.0011899 -0.00118986 5.95287)
(0.00113847 0.00113847 5.98266)
(0.0015924 0.00172908 5.69042)
(0.0018292 0.000885283 4.90065)
(0.00133109 0.000193857 3.55603)
(0.00022148 2.39256e-05 1.49423)
(0.0156889 0.00192465 3.26131)
(0.00733293 -0.000325275 4.72052)
(0.00296688 -0.00296685 5.47531)
(0.00188655 -0.00180704 5.66968)
(0.00172906 0.00159241 5.69042)
(0.00244001 0.00243996 5.45881)
(0.00368018 0.00147077 4.7329)
(0.0025765 0.000569951 3.4337)
(0.000395891 9.58847e-05 1.43897)
(0.029984 0.00214287 1.24591)
(0.0132948 0.000888495 3.21372)
(0.00512671 -0.00512669 4.36414)
(0.00150565 -0.00588427 4.73518)
(0.000926918 -0.00207984 4.87577)
(0.000885322 0.0018292 4.90065)
(0.0014707 0.00368025 4.7329)
(0.00262137 0.00262137 4.16596)
(0.0020024 0.00106772 3.04407)
(0.000326855 0.000164111 1.28875)
(0.0079695 0.000126176 1.14898)
(0.00486207 -0.00486205 2.58163)
(0.00113247 -0.00785607 3.16032)
(0.000333622 -0.00515999 3.41974)
(0.000128851 -0.00163441 3.535)
(0.000193846 0.0013311 3.55603)
(0.000569965 0.00257648 3.4337)
(0.00106777 0.00200231 3.04407)
(0.000896901 0.000896926 2.2673)
(0.000207671 0.000132779 0.998235)
(0.00052519 -0.000525189 0.563857)
(0.000159688 -0.00160921 1.08623)
(0.000141981 -0.00148944 1.33052)
(4.22984e-05 -0.000942664 1.4438)
(5.93441e-06 -0.000292641 1.49139)
(2.39376e-05 0.000221439 1.49423)
(9.58713e-05 0.000395836 1.43897)
(0.000164098 0.000326919 1.28875)
(0.000132762 0.000207722 0.998235)
(3.35529e-05 3.35383e-05 0.489055)
(0.00261844 0.0198968 1.27903)
(0.00107131 0.00847972 1.34421)
(-6.03547e-05 0.00330774 1.1239)
(-0.000115193 0.000115185 0.534396)
(0.00143857 0.00541658 3.27074)
(0.00176079 0.00991751 3.34086)
(-0.000563873 0.0102994 3.19471)
(-0.00376622 0.0037662 2.47887)
(-0.000790365 0.000190266 1.06056)
(-3.57021e-05 -0.00393766 4.7081)
(-8.02993e-05 0.00280705 4.77002)
(-0.00122245 0.0066557 4.73409)
(-0.00471633 0.00471631 4.30176)
(-0.00581118 0.00121464 3.12866)
(-0.000969305 0.000171201 1.3204)
(-0.00374977 -0.00374977 5.49415)
(-0.0015526 -0.00212497 5.61551)
(-0.00190325 0.00199555 5.64726)
(-0.00287518 0.00287513 5.46515)
(-0.0050377 0.00149382 4.7346)
(-0.00407723 0.000420369 3.42792)
(-0.000690989 7.23996e-05 1.44324)
(-0.00393766 -3.57026e-05 4.7081)
(-0.00212496 -0.0015526 5.61551)
(-0.00118987 -0.00118986 5.95287)
(-0.00113854 0.00113845 5.98266)
(-0.00159237 0.00172912 5.69042)
(-0.00182924 0.000885254 4.90065)
(-0.00133111 0.000193864 3.55603)
(-0.000221476 2.39233e-05 1.49423)
(0.00541658 0.00143857 3.27074)
(0.00280705 -8.03015e-05 4.77002)
(0.00199555 -0.00190325 5.64726)
(0.00113846 -0.00113854 5.98266)
(0.00103713 0.00103714 6.01051)
(0.00140998 0.00160979 5.71022)
(0.00159891 0.000883791 4.92192)
(0.00108173 0.000253667 3.57195)
(0.000169822 3.51525e-05 1.49568)
(0.0198968 0.00261844 1.27903)
(0.00991751 0.00176079 3.34086)
(0.00665571 -0.00122245 4.73409)
(0.00287513 -0.00287518 5.46515)
(0.00172909 -0.0015924 5.69042)
(0.00160983 0.00140998 5.71022)
(0.00225563 0.00225569 5.45987)
(0.00314153 0.00143458 4.73173)
(0.00206307 0.000601977 3.43345)
(0.000311543 9.67289e-05 1.43628)
(0.00847972 0.00107131 1.34421)
(0.0102994 -0.000563873 3.19471)
(0.00471631 -0.00471632 4.30176)
(0.00149379 -0.00503776 4.7346)
(0.000885304 -0.00182915 4.90065)
(0.000883731 0.00159892 4.92192)
(0.00143458 0.00314153 4.73173)
(0.00226898 0.00226891 4.14786)
(0.00160468 0.000980269 3.03049)
(0.000276362 0.000147088 1.28304)
(0.00330775 -6.03539e-05 1.1239)
(0.00376621 -0.00376622 2.47887)
(0.00121461 -0.00581123 3.12866)
(0.000420409 -0.00407709 3.42792)
(0.000193843 -0.00133118 3.55603)
(0.000253686 0.00108171 3.57195)
(0.000601992 0.002063 3.43345)
(0.00098025 0.0016047 3.03049)
(0.000756785 0.000756843 2.25478)
(0.000186244 0.000112156 0.993138)
(0.000115185 -0.000115192 0.534396)
(0.000190248 -0.000790402 1.06056)
(0.00017123 -0.00096916 1.3204)
(7.23902e-05 -0.000691141 1.44324)
(2.39358e-05 -0.000221504 1.49423)
(3.51278e-05 0.000169832 1.49568)
(9.67184e-05 0.000311605 1.43628)
(0.000147083 0.000276426 1.28304)
(0.000112167 0.000186212 0.993138)
(3.00245e-05 3.00099e-05 0.486659)
(0.00231169 0.00687533 1.28297)
(0.0010379 0.00564262 1.40248)
(9.11498e-06 0.00428817 1.35739)
(-0.000159694 0.00160919 1.08623)
(-2.33192e-05 2.33222e-05 0.52118)
(0.00143857 -0.00541657 3.27074)
(0.00146783 0.00341297 3.36629)
(0.00025809 0.00804408 3.38609)
(-0.00113248 0.00785606 3.16032)
(-0.00276711 0.00276712 2.40889)
(-0.000504953 0.000229768 1.04353)
(-0.000757114 -0.00991695 4.68678)
(-8.02989e-05 -0.00280704 4.77002)
(-0.000889678 0.00257357 4.81534)
(-0.00150566 0.00588424 4.73518)
(-0.00407157 0.0040716 4.25383)
(-0.00434097 0.00122543 3.10202)
(-0.00069236 0.000192895 1.31119)
(-0.00991695 -0.000757115 4.68678)
(-0.00281561 -0.00281562 5.48515)
(-0.00190326 -0.00199552 5.64726)
(-0.00188658 0.00180698 5.66968)
(-0.00264375 0.00264382 5.46)
(-0.0043051 0.00148267 4.73391)
(-0.00323572 0.000509896 3.43219)
(-0.000517522 8.94171e-05 1.44141)
(-0.00541657 0.00143857 3.27074)
(-0.00280704 -8.03012e-05 4.77002)
(-0.00199552 -0.00190325 5.64726)
(-0.00113853 -0.00113853 5.98266)
(-0.00103705 0.00103717 6.01051)
(-0.00141007 0.00160975 5.71022)
(-0.00159892 0.000883798 4.92192)
(-0.00108175 0.000253669 3.57195)
(-0.000169802 3.51525e-05 1.49568)
(0.00687533 0.00231169 1.28297)
(0.00341297 0.00146783 3.36629)
(0.00257357 -0.000889677 4.81534)
(0.00180698 -0.00188657 5.66968)
(0.00103716 -0.00103708 6.01051)
(0.000948987 0.000948995 6.03702)
(0.00125441 0.00151741 5.72863)
(0.00138777 0.00088263 4.93989)
(0.000879489 0.000301337 3.5839)
(0.000132712 4.24292e-05 1.49619)
(0.00564262 0.0010379 1.40248)
(0.00804408 0.000258088 3.38609)
(0.00588424 -0.00150566 4.73518)
(0.00264379 -0.0026438 5.46)
(0.0016098 -0.00140998 5.71022)
(0.00151736 0.00125441 5.72863)
(0.00207385 0.00207385 5.46234)
(0.00268182 0.00138045 4.73064)
(0.00166565 0.000614225 3.43212)
(0.000252618 9.42526e-05 1.43351)
(0.00428817 9.11438e-06 1.35739)
(0.00785606 -0.00113248 3.16032)
(0.00407155 -0.00407162 4.25383)
(0.00148275 -0.00430497 4.73391)
(0.000883728 -0.00159898 4.92192)
(0.000882637 0.00138775 4.93989)
(0.00138051 0.00268176 4.73064)
(0.00197136 0.00197137 4.13334)
(0.00131119 0.000892953 3.01901)
(0.000240668 0.000130758 1.27803)
(0.00160919 -0.000159694 1.08623)
(0.00276707 -0.00276715 2.40889)
(0.00122552 -0.00434084 3.10202)
(0.000509845 -0.00323583 3.43219)
(0.000253685 -0.00108179 3.57195)
(0.000301337 0.000879485 3.5839)
(0.000614206 0.00166568 3.43212)
(0.000892916 0.00131127 3.01901)
(0.000647069 0.00064706 2.24437)
(0.000168256 9.53021e-05 0.98872)
(2.3307e-05 -2.33322e-05 0.52118)
(0.000229813 -0.000504853 1.04353)
(0.000192862 -0.000692516 1.31119)
(8.94239e-05 -0.000517536 1.44141)
(3.51337e-05 -0.000169714 1.49568)
(4.24208e-05 0.000132755 1.49619)
(9.42633e-05 0.000252661 1.43351)
(0.000130769 0.000240626 1.27803)
(9.53174e-05 0.000168211 0.98872)
(2.69484e-05 2.69532e-05 0.484536)
(0.00231169 -0.00687531 1.28297)
(0.000941347 0.00196759 1.41466)
(-2.99989e-05 0.00320035 1.43679)
(-0.000147392 0.00255924 1.34337)
(-0.000190263 0.000790365 1.06056)
(-4.23997e-05 4.23607e-05 0.513997)
(0.00192465 -0.0156889 3.26131)
(0.00146783 -0.00341295 3.36629)
(0.00019855 0.00288142 3.43179)
(-0.000242351 0.00653736 3.4069)
(-0.00121464 0.00581118 3.12867)
(-0.00209513 0.00209503 2.36139)
(-0.000392277 0.000236658 1.03045)
(-0.00719251 -0.00719251 4.51868)
(-0.000325274 -0.00733292 4.72052)
(-0.000889685 -0.00257355 4.81534)
(-0.00102714 0.00234822 4.84762)
(-0.00149382 0.00503775 4.7346)
(-0.00350794 0.00350782 4.21728)
(-0.00329913 0.00120527 3.07939)
(-0.000517074 0.000192604 1.30275)
(-0.0156889 0.00192465 3.26131)
(-0.00733291 -0.000325277 4.72052)
(-0.00296687 -0.00296686 5.47531)
(-0.00188655 -0.00180704 5.66968)
(-0.00172908 0.00159246 5.69042)
(-0.00244003 0.00243989 5.45881)
(-0.0036802 0.00147079 4.7329)
(-0.00257651 0.000569952 3.4337)
(-0.000395875 9.58853e-05 1.43897)
(-0.00687531 0.00231169 1.28297)
(-0.00341295 0.00146783 3.36629)
(-0.00257355 -0.000889683 4.81534)
(-0.00180703 -0.00188655 5.66968)
(-0.00103706 -0.00103709 6.01051)
(-0.00094912 0.000948974 6.03702)
(-0.00125441 0.00151741 5.72863)
(-0.00138778 0.000882643 4.93989)
(-0.000879485 0.000301333 3.5839)
(-0.000132705 4.24312e-05 1.49619)
(0.00196759 0.000941348 1.41466)
(0.00288142 0.000198547 3.43179)
(0.00234822 -0.00102713 4.84762)
(0.00159245 -0.00172914 5.69042)
(0.000948969 -0.00094903 6.03702)
(0.000872559 0.000872561 6.06178)
(0.00111635 0.00142835 5.74562)
(0.0011986 0.000877743 4.95509)
(0.000717394 0.000338826 3.59277)
(0.000105999 4.67787e-05 1.49604)
(0.00320036 -3.00009e-05 1.43679)
(0.00653736 -0.000242349 3.4069)
(0.0050377 -0.00149386 4.7346)
(0.00243996 -0.00243991 5.45881)
(0.00151735 -0.00125447 5.72863)
(0.00142836 0.00111634 5.74562)
(0.00189829 0.00189824 5.46577)
(0.00229383 0.00131734 4.72974)
(0.00135826 0.000611862 3.43013)
(0.000210652 8.98819e-05 1.43077)
(0.00255924 -0.000147393 1.34337)
(0.00581113 -0.00121466 3.12866)
(0.00350793 -0.00350784 4.21728)
(0.0014707 -0.0036803 4.7329)
(0.000882645 -0.00138781 4.93989)
(0.000877794 0.00119859 4.95509)
(0.00131733 0.00229384 4.72974)
(0.00172088 0.00172094 4.12162)
(0.001091 0.000809606 3.00922)
(0.00021408 0.000115852 1.2736)
(0.000790329 -0.000190272 1.06056)
(0.00209513 -0.00209505 2.36139)
(0.00120519 -0.00329924 3.07939)
(0.000569952 -0.00257655 3.4337)
(0.000301344 -0.000879413 3.5839)
(0.000338806 0.000717424 3.59277)
(0.000611848 0.00135832 3.43013)
(0.000809613 0.00109099 3.00922)
(0.000559458 0.000559413 2.23554)
(0.000152771 8.16437e-05 0.984849)
(4.24002e-05 -4.2365e-05 0.513997)
(0.00023661 -0.000392391 1.03045)
(0.000192605 -0.000517072 1.30275)
(9.58885e-05 -0.000395738 1.43897)
(4.24224e-05 -0.000132688 1.49619)
(4.67985e-05 0.000105992 1.49604)
(8.98932e-05 0.000210608 1.43077)
(0.000115859 0.000214022 1.2736)
(8.1642e-05 0.000152776 0.984849)
(2.42861e-05 2.4298e-05 0.48264)
(0.00261844 -0.0198968 1.27903)
(0.000941346 -0.00196757 1.41466)
(-6.38109e-05 0.00118473 1.45772)
(-9.18675e-05 0.00212866 1.44108)
(-0.000141997 0.00148938 1.33052)
(-0.000229809 0.000504857 1.04353)
(-5.42386e-05 5.42884e-05 0.508061)
(0.000112304 -0.0208395 3.19978)
(0.00176079 -0.00991749 3.34086)
(0.000198549 -0.00288141 3.43179)
(-0.000125638 0.00244395 3.47415)
(-0.000333664 0.00515993 3.41974)
(-0.0012255 0.00434084 3.10202)
(-0.00164582 0.00164591 2.32745)
(-0.00032124 0.000215597 1.01988)
(-0.0208395 0.000112304 3.19978)
(-0.00510379 -0.0051038 4.43629)
(-0.00122246 -0.00665568 4.73409)
(-0.00102712 -0.00234824 4.84762)
(-0.000927002 0.00207983 4.87577)
(-0.00148275 0.00430496 4.73391)
(-0.00303273 0.00303281 4.18866)
(-0.00254773 0.00114766 3.06021)
(-0.00040202 0.000180371 1.29528)
(-0.0198968 0.00261844 1.27903)
(-0.00991749 0.00176079 3.34086)
(-0.00665569 -0.00122246 4.73409)
(-0.00287513 -0.00287513 5.46515)
(-0.00172912 -0.00159241 5.69042)
(-0.00160987 0.00140994 5.71022)
(-0.00225564 0.0022557 5.45987)
(-0.00314155 0.0014346 4.73173)
(-0.00206306 0.000601969 3.43345)
(-0.000311534 9.67332e-05 1.43628)
(-0.00196756 0.000941347 1.41466)
(-0.00288141 0.000198547 3.43179)
(-0.00234824 -0.00102711 4.84762)
(-0.00159238 -0.00172917 5.69042)
(-0.000949116 -0.000949023 6.03702)
(-0.000872556 0.00087256 6.06177)
(-0.00111634 0.00142837 5.74562)
(-0.00119861 0.000877738 4.95509)
(-0.000717388 0.000338826 3.59277)
(-0.000106008 4.67793e-05 1.49604)
(0.00118473 -6.38137e-05 1.45772)
(0.00244395 -0.000125638 3.47415)
(0.00207982 -0.000927034 4.87577)
(0.00140994 -0.00160974 5.71022)
(0.000872555 -0.000872622 6.06177)
(0.000800804 0.000800789 6.08476)
(0.000993958 0.00134265 5.76135)
(0.00103266 0.000870948 4.96796)
(0.000588245 0.000366446 3.59925)
(8.65805e-05 4.89952e-05 1.49543)
(0.00212866 -9.18686e-05 1.44108)
(0.00515989 -0.000333662 3.41974)
(0.00430505 -0.00148267 4.73391)
(0.00225562 -0.00225573 5.45987)
(0.00142837 -0.00111638 5.74562)
(0.0013427 0.00099396 5.76135)
(0.00173374 0.00173375 5.46985)
(0.001968 0.00124917 4.72904)
(0.00111981 0.000598859 3.42777)
(0.00018015 8.46258e-05 1.42811)
(0.00148934 -0.000141995 1.33052)
(0.00434095 -0.00122547 3.10202)
(0.0030327 -0.00303281 4.18866)
(0.00143459 -0.00314159 4.73173)
(0.0008778 -0.00119854 4.95509)
(0.000870933 0.00103268 4.96796)
(0.00124912 0.00196805 4.72904)
(0.00150977 0.00150978 4.11208)
(0.000922716 0.00073228 3.00081)
(0.000193355 0.000102609 1.26968)
(0.000504951 -0.000229785 1.04353)
(0.0016458 -0.0016459 2.32745)
(0.00114764 -0.00254776 3.06021)
(0.000602011 -0.00206294 3.43345)
(0.000338808 -0.000717358 3.59277)
(0.000366445 0.000588254 3.59925)
(0.000598872 0.0011198 3.42777)
(0.000732309 0.000922659 3.00081)
(0.000488309 0.000488296 2.22794)
(0.000139251 7.0561e-05 0.981426)
(5.4241e-05 -5.42819e-05 0.508061)
(0.000215598 -0.000321227 1.01988)
(0.000180397 -0.000401886 1.29528)
(9.67261e-05 -0.000311542 1.43628)
(4.67942e-05 -0.000106072 1.49604)
(4.90064e-05 8.65402e-05 1.49543)
(8.46215e-05 0.000180105 1.42811)
(0.000102604 0.000193362 1.26968)
(7.05499e-05 0.000139284 0.981426)
(2.19775e-05 2.19808e-05 0.480936)
(0.00214287 -0.029984 1.24591)
(0.0010379 -0.00564261 1.40248)
(-6.38105e-05 -0.00118472 1.45772)
(-8.12609e-05 0.000824295 1.47006)
(-2.89156e-05 0.0013618 1.44271)
(-0.000171215 0.000969201 1.3204)
(-0.000236614 0.000392387 1.03045)
(-5.19991e-05 5.19803e-05 0.502892)
(-0.0116733 -0.0116733 2.89393)
(0.000888494 -0.0132948 3.21372)
(0.000258083 -0.00804406 3.38609)
(-0.000125631 -0.00244395 3.47415)
(-0.000103636 0.0020034 3.50782)
(-0.000420378 0.00407713 3.42792)
(-0.00120522 0.00329923 3.07939)
(-0.00132156 0.00132155 2.30214)
(-0.000270436 0.000185953 1.01128)
(-0.029984 0.00214287 1.24591)
(-0.0132948 0.000888491 3.21372)
(-0.0051267 -0.0051267 4.36414)
(-0.00150562 -0.00588425 4.73518)
(-0.000927041 -0.00207985 4.87577)
(-0.000885262 0.00182916 4.90065)
(-0.00147073 0.00368027 4.7329)
(-0.00262138 0.00262138 4.16596)
(-0.0020024 0.00106772 3.04407)
(-0.000326845 0.000164115 1.28875)
(-0.0056426 0.0010379 1.40248)
(-0.00804407 0.000258083 3.38609)
(-0.00588425 -0.00150562 4.73518)
(-0.00264382 -0.00264387 5.46)
(-0.00160984 -0.00140996 5.71022)
(-0.00151736 0.00125441 5.72863)
(-0.00207387 0.00207389 5.46234)
(-0.00268182 0.00138044 4.73064)
(-0.00166564 0.000614226 3.43212)
(-0.000252626 9.42534e-05 1.43351)
(-0.00118473 -6.38129e-05 1.45772)
(-0.00244395 -0.000125633 3.47415)
(-0.00207981 -0.00092707 4.87577)
(-0.00141006 -0.00160971 5.71022)
(-0.000872553 -0.000872622 6.06177)
(-0.000800758 0.000800801 6.08476)
(-0.000993974 0.00134264 5.76135)
(-0.00103266 0.000870941 4.96796)
(-0.000588252 0.000366448 3.59925)
(-8.65865e-05 4.89942e-05 1.49543)
(0.000824296 -8.12635e-05 1.47006)
(0.00200339 -0.000103617 3.50782)
(0.00182917 -0.000885198 4.90065)
(0.0012544 -0.00151745 5.72863)
(0.000800815 -0.0008008 6.08476)
(0.000734279 0.000734283 6.10614)
(0.000886222 0.00126279 5.77594)
(0.000888994 0.000860831 4.97885)
(0.000485579 0.000384901 3.60387)
(7.23254e-05 4.97953e-05 1.4945)
(0.00136177 -2.89008e-05 1.44271)
(0.00407721 -0.000420391 3.42792)
(0.00368018 -0.00147079 4.7329)
(0.00207388 -0.00207391 5.46234)
(0.0013427 -0.000993905 5.76135)
(0.00126277 0.000886243 5.77594)
(0.00158128 0.00158132 5.47432)
(0.00169501 0.00117856 4.72855)
(0.0009339 0.00057869 3.42523)
(0.000157544 7.90645e-05 1.42557)
(0.000969301 -0.00017122 1.3204)
(0.00329911 -0.00120525 3.07939)
(0.00262136 -0.00262141 4.16596)
(0.00138052 -0.00268172 4.73064)
(0.00087093 -0.00103263 4.96796)
(0.000860789 0.000889001 4.97885)
(0.00117856 0.001695 4.72855)
(0.00133137 0.00133133 4.10424)
(0.000791671 0.000661782 2.99353)
(0.000176562 9.10078e-05 1.26618)
(0.000392275 -0.000236647 1.03045)
(0.00132153 -0.00132157 2.30214)
(0.00106779 -0.00200229 3.04407)
(0.00061422 -0.00166562 3.43212)
(0.000366439 -0.000588301 3.59925)
(0.000384917 0.000485555 3.60387)
(0.000578703 0.000933853 3.42523)
(0.000661789 0.000791651 2.99353)
(0.000429701 0.000429726 2.22132)
(0.000127324 6.15148e-05 0.978374)
(5.1991e-05 -5.1988e-05 0.502892)
(0.000185991 -0.000270344 1.01128)
(0.000164109 -0.00032687 1.28875)
(9.42517e-05 -0.000252726 1.43351)
(4.90038e-05 -8.66171e-05 1.49543)
(4.97842e-05 7.23163e-05 1.4945)
(7.90543e-05 0.000157558 1.42557)
(9.10006e-05 0.000176605 1.26618)
(6.15098e-05 0.000127339 0.978374)
(1.99605e-05 1.99545e-05 0.479397)
(-0.00308425 -0.0298373 1.11185)
(0.00107131 -0.00847971 1.34421)
(-2.99995e-05 -0.00320035 1.43679)
(-8.12629e-05 -0.000824316 1.47006)
(1.40219e-05 0.000548798 1.47894)
(-4.22814e-05 0.000942741 1.4438)
(-0.00019288 0.000692477 1.31119)
(-0.000215611 0.000321203 1.01988)
(-4.67639e-05 4.67374e-05 0.498558)
(-0.0298373 -0.00308425 1.11185)
(-0.00613478 -0.00613478 2.71707)
(-0.000563882 -0.0102994 3.19471)
(-0.000242335 -0.00653737 3.4069)
(-0.000103649 -0.00200347 3.50782)
(-0.000128792 0.00163447 3.535)
(-0.000509885 0.00323578 3.43219)
(-0.00114767 0.00254771 3.06021)
(-0.00107957 0.00107949 2.28269)
(-0.000234448 0.000157487 1.00419)
(-0.0084797 0.00107131 1.34421)
(-0.0102994 -0.000563879 3.19471)
(-0.0047163 -0.0047163 4.30176)
(-0.00149389 -0.0050378 4.7346)
(-0.00088523 -0.00182914 4.90065)
(-0.00088375 0.00159893 4.92192)
(-0.00143461 0.00314155 4.73173)
(-0.00226898 0.00226889 4.14786)
(-0.00160468 0.000980274 3.03049)
(-0.000276366 0.000147088 1.28304)
(-0.00320036 -3.00003e-05 1.43679)
(-0.00653737 -0.000242335 3.4069)
(-0.00503773 -0.00149393 4.7346)
(-0.00243998 -0.00243984 5.45881)
(-0.00151735 -0.00125447 5.72863)
(-0.00142837 0.00111637 5.74562)
(-0.0018983 0.00189823 5.46577)
(-0.00229382 0.00131733 4.72974)
(-0.00135827 0.000611867 3.43013)
(-0.000210659 8.98795e-05 1.43077)
(-0.000824315 -8.12651e-05 1.47006)
(-0.00200343 -0.00010363 3.50782)
(-0.00182924 -0.000885161 4.90065)
(-0.0012544 -0.00151744 5.72863)
(-0.000800762 -0.000800804 6.08476)
(-0.000734297 0.000734283 6.10614)
(-0.000886238 0.00126278 5.77594)
(-0.000888998 0.000860832 4.97885)
(-0.000485589 0.000384901 3.60387)
(-7.23214e-05 4.97947e-05 1.4945)
(0.000548797 1.40475e-05 1.47894)
(0.00163446 -0.000128837 3.53501)
(0.00159892 -0.000883797 4.92192)
(0.00111638 -0.00142842 5.74562)
(0.000734281 -0.000734225 6.10614)
(0.000673971 0.000673992 6.12607)
(0.000791288 0.00118776 5.78948)
(0.000765782 0.000846599 4.9881)
(0.000403978 0.000395606 3.60707)
(6.17697e-05 4.96294e-05 1.49337)
(0.000942801 -4.23179e-05 1.4438)
(0.0032357 -0.000509879 3.43219)
(0.00314154 -0.00143463 4.73173)
(0.0018983 -0.0018982 5.46577)
(0.00126277 -0.000886206 5.77594)
(0.00118772 0.000791292 5.78948)
(0.00144111 0.00144111 5.47901)
(0.00146659 0.00110792 4.72823)
(0.000788 0.000553934 3.42262)
(0.000140443 7.35209e-05 1.42317)
(0.000692351 -0.000192882 1.31119)
(0.0025477 -0.00114767 3.06021)
(0.002269 -0.0022689 4.14786)
(0.00131733 -0.00229379 4.72974)
(0.000860783 -0.000889043 4.97885)
(0.000846601 0.000765765 4.9881)
(0.00110795 0.00146655 4.72823)
(0.00117996 0.00117994 4.09776)
(0.000687755 0.000598143 2.98716)
(0.000162486 8.09234e-05 1.26303)
(0.000321221 -0.000215601 1.01988)
(0.00107958 -0.00107949 2.28269)